# vtk DataFile Version 4.0
Generated by LIGGGHTS
ASCII
DATASET POLYDATA
POINTS 960 float
0 0.000825 0.00225 0 0.0009125 0.002625 0.00038118 0.000825304 0.00261034 
0 0.0009125 0.002625 0.000382683 0.00092388 0.003 0.00038118 0.000825304 0.00261034 
0 0.0009125 0.002625 0 0.001 0.003 0.000382683 0.00092388 0.003 
0.00038118 0.000825304 0.00261034 0.000382683 0.00092388 0.003 0.000707107 0.000707107 0.003 
0.000654517 0.000502228 0.00225 0.000362945 0.00073598 0.00223117 0.000682354 0.00060571 0.00262461 
0.000362945 0.00073598 0.00223117 0.00038118 0.000825304 0.00261034 0.000682354 0.00060571 0.00262461 
0.000362945 0.00073598 0.00223117 0 0.000825 0.00225 0.00038118 0.000825304 0.00261034 
0.000682354 0.00060571 0.00262461 0.00038118 0.000825304 0.00261034 0.000707107 0.000707107 0.003 
0.000446105 0.000423338 0.00135 0.000241478 0.000486081 0.00104039 0.000248176 0.00057948 0.00141595 
0.000241478 0.000486081 0.00104039 0 0.0005625 0.001125 0.000248176 0.00057948 0.00141595 
0.000241478 0.000486081 0.00104039 0 0.000475 0.00075 0 0.0005625 0.001125 
0.000248176 0.00057948 0.00141595 0 0.0005625 0.001125 0 0.00065 0.0015 
0.000446105 0.000423338 0.00135 0.000587858 0.000227042 0.00141505 0.000493431 0.000226791 0.00104166 
0.000587858 0.000227042 0.00141505 0.0005625 0 0.001125 0.000493431 0.000226791 0.00104166 
0.000587858 0.000227042 0.00141505 0.00065 0 0.0015 0.0005625 0 0.001125 
0.000493431 0.000226791 0.00104166 0.0005625 0 0.001125 0.000475 0 0.00075 
0 0.000475 0.00075 0.000241478 0.000486081 0.00104039 0.000332005 0.000332005 0.000726539 
0.000241478 0.000486081 0.00104039 0.000493431 0.000226791 0.00104166 0.000332005 0.000332005 0.000726539 
0.000241478 0.000486081 0.00104039 0.000446105 0.000423338 0.00135 0.000493431 0.000226791 0.00104166 
0.000332005 0.000332005 0.000726539 0.000493431 0.000226791 0.00104166 0.000475 0 0.00075 
0.001 0 0.003 0.000871286 0.000264035 0.00261606 0.00092388 0.000382683 0.003 
0.000871286 0.000264035 0.00261606 0.000682354 0.00060571 0.00262461 0.00092388 0.000382683 0.003 
0.000871286 0.000264035 0.00261606 0.000654517 0.000502228 0.00225 0.000682354 0.00060571 0.00262461 
0.00092388 0.000382683 0.003 0.000682354 0.00060571 0.00262461 0.000707107 0.000707107 0.003 
0.001 0 0.003 0.0009125 0 0.002625 0.000871286 0.000264035 0.00261606 
0.0009125 0 0.002625 0.000779077 0.000264461 0.00224031 0.000871286 0.000264035 0.00261606 
0.0009125 0 0.002625 0.000825 0 0.00225 0.000779077 0.000264461 0.00224031 
0.000871286 0.000264035 0.00261606 0.000779077 0.000264461 0.00224031 0.000654517 0.000502228 0.00225 
0.000654517 0.000502228 0.00225 0.000362381 0.000637886 0.00185843 0.000362945 0.00073598 0.00223117 
0.000362381 0.000637886 0.00185843 0 0.0007375 0.001875 0.000362945 0.00073598 0.00223117 
0.000362381 0.000637886 0.00185843 0 0.00065 0.0015 0 0.0007375 0.001875 
0.000362945 0.00073598 0.00223117 0 0.0007375 0.001875 0 0.000825 0.00225 
0.000654517 0.000502228 0.00225 0.000779077 0.000264461 0.00224031 0.000686397 0.000264257 0.00186646 
0.000779077 0.000264461 0.00224031 0.0007375 0 0.001875 0.000686397 0.000264257 0.00186646 
0.000779077 0.000264461 0.00224031 0.000825 0 0.00225 0.0007375 0 0.001875 
0.000686397 0.000264257 0.00186646 0.0007375 0 0.001875 0.00065 0 0.0015 
0.000654517 0.000502228 0.00225 0.000551018 0.000463365 0.00179979 0.000362381 0.000637886 0.00185843 
0.000551018 0.000463365 0.00179979 0.000248176 0.00057948 0.00141595 0.000362381 0.000637886 0.00185843 
0.000551018 0.000463365 0.00179979 0.000446105 0.000423338 0.00135 0.000248176 0.00057948 0.00141595 
0.000362381 0.000637886 0.00185843 0.000248176 0.00057948 0.00141595 0 0.00065 0.0015 
0.00065 0 0.0015 0.000587858 0.000227042 0.00141505 0.000686397 0.000264257 0.00186646 
0.000587858 0.000227042 0.00141505 0.000551018 0.000463365 0.00179979 0.000686397 0.000264257 0.00186646 
0.000587858 0.000227042 0.00141505 0.000446105 0.000423338 0.00135 0.000551018 0.000463365 0.00179979 
0.000686397 0.000264257 0.00186646 0.000551018 0.000463365 0.00179979 0.000654517 0.000502228 0.00225 
0.000212132 0.000212132 0 0.000368955 0.000113658 0.00036885 0.000277164 0.000114805 0 
0.000368955 0.000113658 0.00036885 0.0003875 0 0.000375 0.000277164 0.000114805 0 
0.000368955 0.000113658 0.00036885 0.000475 0 0.00075 0.0003875 0 0.000375 
0.000277164 0.000114805 0 0.0003875 0 0.000375 0.0003 0 0 
0 0.000475 0.00075 0.00011651 0.000368011 0.000368632 0 0.0003875 0.000375 
0.00011651 0.000368011 0.000368632 0.000114805 0.000277164 0 0 0.0003875 0.000375 
0.00011651 0.000368011 0.000368632 0.000212132 0.000212132 0 0.000114805 0.000277164 0 
0 0.0003875 0.000375 0.000114805 0.000277164 0 0 0.0003 0 
0 0.000475 0.00075 0.000332005 0.000332005 0.000726539 0.00011651 0.000368011 0.000368632 
0.000332005 0.000332005 0.000726539 0.000368955 0.000113658 0.00036885 0.00011651 0.000368011 0.000368632 
0.000332005 0.000332005 0.000726539 0.000475 0 0.00075 0.000368955 0.000113658 0.00036885 
0.00011651 0.000368011 0.000368632 0.000368955 0.000113658 0.00036885 0.000212132 0.000212132 0 
0.000825 0 0.00225 0.0009125 0 0.002625 0.000825292 -0.000380893 0.00260978 
0.0009125 0 0.002625 0.00092388 -0.000382683 0.003 0.000825292 -0.000380893 0.00260978 
0.0009125 0 0.002625 0.001 0 0.003 0.00092388 -0.000382683 0.003 
0.000825292 -0.000380893 0.00260978 0.00092388 -0.000382683 0.003 0.000707107 -0.000707107 0.003 
0.000502228 -0.000654517 0.00225 0.000737502 -0.000363696 0.00223844 0.000605887 -0.000682184 0.00262457 
0.000737502 -0.000363696 0.00223844 0.000825292 -0.000380893 0.00260978 0.000605887 -0.000682184 0.00262457 
0.000737502 -0.000363696 0.00223844 0.000825 0 0.00225 0.000825292 -0.000380893 0.00260978 
0.000605887 -0.000682184 0.00262457 0.000825292 -0.000380893 0.00260978 0.000707107 -0.000707107 0.003 
0.000423338 -0.000446105 0.00135 0.000486134 -0.000241425 0.00104049 0.000581617 -0.000241734 0.00141365 
0.000486134 -0.000241425 0.00104049 0.0005625 0 0.001125 0.000581617 -0.000241734 0.00141365 
0.000486134 -0.000241425 0.00104049 0.000475 0 0.00075 0.0005625 0 0.001125 
0.000581617 -0.000241734 0.00141365 0.0005625 0 0.001125 0.00065 0 0.0015 
0.000423338 -0.000446105 0.00135 0.000233014 -0.000585983 0.00141691 0.000226839 -0.000493384 0.00104157 
0.000233014 -0.000585983 0.00141691 0 -0.0005625 0.001125 0.000226839 -0.000493384 0.00104157 
0.000233014 -0.000585983 0.00141691 0 -0.00065 0.0015 0 -0.0005625 0.001125 
0.000226839 -0.000493384 0.00104157 0 -0.0005625 0.001125 0 -0.000475 0.00075 
0.000475 0 0.00075 0.000486134 -0.000241425 0.00104049 0.000332005 -0.000332005 0.000726539 
0.000486134 -0.000241425 0.00104049 0.000226839 -0.000493384 0.00104157 0.000332005 -0.000332005 0.000726539 
0.000486134 -0.000241425 0.00104049 0.000423338 -0.000446105 0.00135 0.000226839 -0.000493384 0.00104157 
0.000332005 -0.000332005 0.000726539 0.000226839 -0.000493384 0.00104157 0 -0.000475 0.00075 
0 -0.001 0.003 0.000270287 -0.000868154 0.0026111 0.000382683 -0.00092388 0.003 
0.000270287 -0.000868154 0.0026111 0.000605887 -0.000682184 0.00262457 0.000382683 -0.00092388 0.003 
0.000270287 -0.000868154 0.0026111 0.000502228 -0.000654517 0.00225 0.000605887 -0.000682184 0.00262457 
0.000382683 -0.00092388 0.003 0.000605887 -0.000682184 0.00262457 0.000707107 -0.000707107 0.003 
0 -0.001 0.003 0 -0.0009125 0.002625 0.000270287 -0.000868154 0.0026111 
0 -0.0009125 0.002625 0.000264461 -0.000779077 0.00224031 0.000270287 -0.000868154 0.0026111 
0 -0.0009125 0.002625 0 -0.000825 0.00225 0.000264461 -0.000779077 0.00224031 
0.000270287 -0.000868154 0.0026111 0.000264461 -0.000779077 0.00224031 0.000502228 -0.000654517 0.00225 
0.000502228 -0.000654517 0.00225 0.000637899 -0.000362353 0.00185842 0.000737502 -0.000363696 0.00223844 
0.000637899 -0.000362353 0.00185842 0.0007375 0 0.001875 0.000737502 -0.000363696 0.00223844 
0.000637899 -0.000362353 0.00185842 0.00065 0 0.0015 0.0007375 0 0.001875 
0.000737502 -0.000363696 0.00223844 0.0007375 0 0.001875 0.000825 0 0.00225 
0.000502228 -0.000654517 0.00225 0.000264461 -0.000779077 0.00224031 0.000264698 -0.000686473 0.00186745 
0.000264461 -0.000779077 0.00224031 0 -0.0007375 0.001875 0.000264698 -0.000686473 0.00186745 
0.000264461 -0.000779077 0.00224031 0 -0.000825 0.00225 0 -0.0007375 0.001875 
0.000264698 -0.000686473 0.00186745 0 -0.0007375 0.001875 0 -0.00065 0.0015 
0.000502228 -0.000654517 0.00225 0.000463373 -0.000551012 0.00179979 0.000637899 -0.000362353 0.00185842 
0.000463373 -0.000551012 0.00179979 0.000581617 -0.000241734 0.00141365 0.000637899 -0.000362353 0.00185842 
0.000463373 -0.000551012 0.00179979 0.000423338 -0.000446105 0.00135 0.000581617 -0.000241734 0.00141365 
0.000637899 -0.000362353 0.00185842 0.000581617 -0.000241734 0.00141365 0.00065 0 0.0015 
0 -0.00065 0.0015 0.000233014 -0.000585983 0.00141691 0.000264698 -0.000686473 0.00186745 
0.000233014 -0.000585983 0.00141691 0.000463373 -0.000551012 0.00179979 0.000264698 -0.000686473 0.00186745 
0.000233014 -0.000585983 0.00141691 0.000423338 -0.000446105 0.00135 0.000463373 -0.000551012 0.00179979 
0.000264698 -0.000686473 0.00186745 0.000463373 -0.000551012 0.00179979 0.000502228 -0.000654517 0.00225 
0.000212132 -0.000212132 0 0.00011651 -0.000368011 0.000368632 0.000114805 -0.000277164 0 
0.00011651 -0.000368011 0.000368632 0 -0.0003875 0.000375 0.000114805 -0.000277164 0 
0.00011651 -0.000368011 0.000368632 0 -0.000475 0.00075 0 -0.0003875 0.000375 
0.000114805 -0.000277164 0 0 -0.0003875 0.000375 0 -0.0003 0 
0.000475 0 0.00075 0.000368955 -0.000113658 0.00036885 0.0003875 0 0.000375 
0.000368955 -0.000113658 0.00036885 0.000277164 -0.000114805 0 0.0003875 0 0.000375 
0.000368955 -0.000113658 0.00036885 0.000212132 -0.000212132 0 0.000277164 -0.000114805 0 
0.0003875 0 0.000375 0.000277164 -0.000114805 0 0.0003 0 0 
0.000475 0 0.00075 0.000332005 -0.000332005 0.000726539 0.000368955 -0.000113658 0.00036885 
[...]
CELL_DATA 320
FIELD FieldData 2
meshid 1 320 int
0 1 2 3 4 5 6 7 8 
9 10 11 12 13 14 15 16 17 
18 19 20 21 22 23 24 25 26 
27 28 29 30 31 32 33 34 35 
36 37 38 39 40 41 42 43 44 
45 46 47 48 49 50 51 52 53 
54 55 56 57 58 59 60 61 62 
63 64 65 66 67 68 69 70 71 
72 73 74 75 76 77 78 79 80 
81 82 83 84 85 86 87 88 89 
90 91 92 93 94 95 96 97 98 
99 100 101 102 103 104 105 106 107 
108 109 110 111 112 113 114 115 116 
117 118 119 120 121 122 123 124 125 
126 127 128 129 130 131 132 133 134 
135 136 137 138 139 140 141 142 143 
144 145 146 147 148 149 150 151 152 
153 154 155 156 157 158 159 160 161 
162 163 164 165 166 167 168 169 170 
171 172 173 174 175 176 177 178 179 
180 181 182 183 184 185 186 187 188 
189 190 191 192 193 194 195 196 197 
198 199 200 201 202 203 204 205 206 
207 208 209 210 211 212 213 214 215 
216 217 218 219 220 221 222 223 0 
1 2 3 4 5 6 7 8 9 
10 11 12 13 14 15 16 17 18 
19 20 21 22 23 24 25 26 27 
28 29 30 31 32 33 34 35 36 
37 38 39 40 41 42 43 44 45 
46 47 48 49 50 51 52 53 54 
55 56 57 58 59 60 61 62 63 
64 65 66 67 68 69 70 71 72 
73 74 75 76 77 78 79 80 81 
82 83 84 85 86 87 88 89 90 
91 92 93 94 95 
v 3 320 double
0 0 0 0 0 0 0 0 0 
0 0 0 0 0 0 0 0 0 
0 0 0 0 0 0 0 0 0 
0 0 0 0 0 0 0 0 0 
0 0 0 0 0 0 0 0 0 
0 0 0 0 0 0 0 0 0 
0 0 0 0 0 0 0 0 0 
0 0 0 0 0 0 0 0 0 
0 0 0 0 0 0 0 0 0 
0 0 0 0 0 0 0 0 0 
0 0 0 0 0 0 0 0 0 
0 0 0 0 0 0 0 0 0 
0 0 0 0 0 0 0 0 0 
0 0 0 0 0 0 0 0 0 
0 0 0 0 0 0 0 0 0 
0 0 0 0 0 0 0 0 0 
0 0 0 0 0 0 0 0 0 
0 0 0 0 0 0 0 0 0 
0 0 0 0 0 0 0 0 0 
0 0 0 0 0 0 0 0 0 
0 0 0 0 0 0 0 0 0 
0 0 0 0 0 0 0 0 0 
0 0 0 0 0 0 0 0 0 
0 0 0 0 0 0 0 0 0 
0 0 0 0 0 0 0 0 0 
0 0 0 0 0 0 0 0 0 
0 0 0 0 0 0 0 0 0 
0 0 0 0 0 0 0 0 0 
0 0 0 0 0 0 0 0 0 
0 0 0 0 0 0 0 0 0 
0 0 0 0 0 0 0 0 0 
0 0 0 0 0 0 0 0 0 
0 0 0 0 0 0 0 0 0 
0 0 0 0 0 0 0 0 0 
0 0 0 0 0 0 0 0 0 
0 0 0 0 0 0 0 0 0 
0 0 0 0 0 0 0 0 0 
0 0 0 0 0 0 0 0 0 
0 0 0 0 0 0 0 0 0 
0 0 0 0 0 0 0 0 0 
0 0 0 0 0 0 0 0 0 
0 0 0 0 0 0 0 0 0 
0 0 0 0 0 0 0 0 0 
0 0 0 0 0 0 0 0 0 
0 0 0 0 0 0 0 0 0 
0 0 0 0 0 0 0 0 0 
0 0 0 0 0 0 0 0 0 
0 0 0 0 0 0 0 0 0 
0 0 0 0 0 0 0 0 0 
0 0 0 0 0 0 0 0 0 
0 0 0 0 0 0 0 0 0 
0 0 0 0 0 0 0 0 0 
0 0 0 0 0 0 0 0 0 
0 0 0 0 0 0 0 0 0 
0 0 0 0 0 0 0 0 0 
0 0 0 0 0 0 0 0 0 
0 0 0 0 0 0 0 0 0 
0 0 0 0 0 0 0 0 0 
0 0 0 0 0 0 0 0 0 
0 0 0 0 0 0 0 0 0 
0 0 0 0 0 0 0 0 0 
0 0 0 0 0 0 0 0 0 
0 0 0 0 0 0 0 0 0 
0 0 0 0 0 0 0 0 0 
0 0 0 0 0 0 0 0 0 
0 0 0 0 0 0 0 0 0 
0 0 0 0 0 0 0 0 0 
0 0 0 0 0 0 0 0 0 
0 0 0 0 0 0 0 0 0 
0 0 0 0 0 0 0 0 0 
0 0 0 0 0 0 0 0 0 
0 0 0 0 0 0 0 0 0 
0 0 0 0 0 0 0 0 0 
0 0 0 0 0 0 0 0 0 
0 0 0 0 0 0 0.034391 -0.0476127 0 
0.0385125 -0.0401654 0 0.0329905 -0.0328381 0 0.048156 -0.0400453 0 
-0.034391 0.0476127 0 -0.0385125 0.0401654 0 -0.0329905 0.0328381 0 
-0.048156 0.0400453 0 -0.0161605 0.00256402 0 -0.018556 0.0126954 0 
-0.0230123 0.0191031 0 -0.0164953 0.016419 0 0.0161605 -0.00256402 0 
0.018556 -0.0126954 0 0.0230123 -0.0191031 0 0.0164953 -0.016419 0 
-0.00928825 -0.000426568 0 -0.0048115 0.00671423 0 -0.00962301 0.0134285 0 
0.00447674 0.0071408 0 -0.00447674 -0.0071408 0 0.0048115 -0.00671423 0 
0.00928825 0.000426568 0 0.00962301 -0.0134285 0 0.0202912 -0.041325 0 
0.010313 -0.02759 0 -0.001726 -0.0175787 0 0.0123738 -0.0238663 0 
0.0271635 -0.0443156 0 0.0240575 -0.0335712 0 0.019246 -0.0268569 0 
0.0257631 -0.029541 0 -0.0202912 0.041325 0 -0.010313 0.02759 0 
0.001726 0.0175787 0 -0.0123738 0.0238663 0 -0.0271635 0.0443156 0 
-0.0240575 0.0335712 0 -0.019246 0.0268569 0 -0.0257631 0.029541 0 
0.0454052 -0.0296074 0 0.033011 -0.0192896 0 0.0302398 -0.0224002 0 
0.023388 -0.00586111 0 -0.0454052 0.0296074 0 -0.033011 0.0192896 0 
-0.0302398 0.0224002 0 -0.023388 0.00586111 0 0.00051055 0.00849639 0 
0.00858847 0.00322778 0 0.00807792 -0.0052686 0 0.017177 0.00645559 0 
-0.00807792 0.0052686 0 -0.00858847 -0.00322778 0 -0.017177 -0.00645559 0 
-0.00051055 -0.00849639 0 0.0476087 0.0229989 0 0.0401574 0.0157282 0 
0.0329615 0.0127058 0 0.0399022 0.0114801 0 -0.0476087 -0.0229989 0 
-0.0401575 -0.0157282 0 -0.0329615 -0.0127058 0 -0.0399022 -0.01148 0 
0.0550136 0.0218415 0 0.0549672 0.0134136 0 0.047307 0.0103228 0 
0.062581 0.00807656 0 -0.0550136 -0.0218415 0 -0.0549672 -0.0134136 0 
-0.0473071 -0.0103227 0 -0.062581 -0.00807656 0 0.0397397 0.0240877 0 
0.0244193 0.0179059 0 0.00842598 0.0158355 0 0.0250924 0.0137947 0 
-0.0397397 -0.0240877 0 -0.0244193 -0.0179059 0 -0.00842598 -0.0158355 0 
-0.0250924 -0.0137947 0 0.0546655 0.000737486 0 0.0391363 -0.00126452 0 
0.0393916 0.00298369 0 0.0233519 -0.00751476 0 -0.0546655 -0.000737486 0 
-0.0391363 0.00126452 0 -0.0393916 -0.00298366 0 -0.0233519 0.00751476 0 
-0.015947 0.00635745 0 -0.0243266 -0.00105009 0 -0.0319867 -0.00414096 0 
-0.025046 -0.00536674 0 0.015947 -0.00635745 0 0.0243266 0.0010501 0 
0.0319867 0.004141 0 0.025046 0.00536674 0 
