# vtk DataFile Version 4.0
Generated by LIGGGHTS
ASCII
DATASET POLYDATA
POINTS 960 float
0 0.000825 0.00225 0 0.0009125 0.002625 0.00038118 0.000825304 0.00261034 
0 0.0009125 0.002625 0.000382683 0.00092388 0.003 0.00038118 0.000825304 0.00261034 
0 0.0009125 0.002625 0 0.001 0.003 0.000382683 0.00092388 0.003 
0.00038118 0.000825304 0.00261034 0.000382683 0.00092388 0.003 0.000707107 0.000707107 0.003 
0.000654517 0.000502228 0.00225 0.000362945 0.00073598 0.00223117 0.000682354 0.00060571 0.00262461 
0.000362945 0.00073598 0.00223117 0.00038118 0.000825304 0.00261034 0.000682354 0.00060571 0.00262461 
0.000362945 0.00073598 0.00223117 0 0.000825 0.00225 0.00038118 0.000825304 0.00261034 
0.000682354 0.00060571 0.00262461 0.00038118 0.000825304 0.00261034 0.000707107 0.000707107 0.003 
0.000446105 0.000423338 0.00135 0.000241478 0.000486081 0.00104039 0.000248176 0.00057948 0.00141595 
0.000241478 0.000486081 0.00104039 0 0.0005625 0.001125 0.000248176 0.00057948 0.00141595 
0.000241478 0.000486081 0.00104039 0 0.000475 0.00075 0 0.0005625 0.001125 
0.000248176 0.00057948 0.00141595 0 0.0005625 0.001125 0 0.00065 0.0015 
0.000446105 0.000423338 0.00135 0.000587858 0.000227042 0.00141505 0.000493431 0.000226791 0.00104166 
0.000587858 0.000227042 0.00141505 0.0005625 0 0.001125 0.000493431 0.000226791 0.00104166 
0.000587858 0.000227042 0.00141505 0.00065 0 0.0015 0.0005625 0 0.001125 
0.000493431 0.000226791 0.00104166 0.0005625 0 0.001125 0.000475 0 0.00075 
0 0.000475 0.00075 0.000241478 0.000486081 0.00104039 0.000332005 0.000332005 0.000726539 
0.000241478 0.000486081 0.00104039 0.000493431 0.000226791 0.00104166 0.000332005 0.000332005 0.000726539 
0.000241478 0.000486081 0.00104039 0.000446105 0.000423338 0.00135 0.000493431 0.000226791 0.00104166 
0.000332005 0.000332005 0.000726539 0.000493431 0.000226791 0.00104166 0.000475 0 0.00075 
0.001 0 0.003 0.000871286 0.000264035 0.00261606 0.00092388 0.000382683 0.003 
0.000871286 0.000264035 0.00261606 0.000682354 0.00060571 0.00262461 0.00092388 0.000382683 0.003 
0.000871286 0.000264035 0.00261606 0.000654517 0.000502228 0.00225 0.000682354 0.00060571 0.00262461 
0.00092388 0.000382683 0.003 0.000682354 0.00060571 0.00262461 0.000707107 0.000707107 0.003 
0.001 0 0.003 0.0009125 0 0.002625 0.000871286 0.000264035 0.00261606 
0.0009125 0 0.002625 0.000779077 0.000264461 0.00224031 0.000871286 0.000264035 0.00261606 
0.0009125 0 0.002625 0.000825 0 0.00225 0.000779077 0.000264461 0.00224031 
0.000871286 0.000264035 0.00261606 0.000779077 0.000264461 0.00224031 0.000654517 0.000502228 0.00225 
0.000654517 0.000502228 0.00225 0.000362381 0.000637886 0.00185843 0.000362945 0.00073598 0.00223117 
0.000362381 0.000637886 0.00185843 0 0.0007375 0.001875 0.000362945 0.00073598 0.00223117 
0.000362381 0.000637886 0.00185843 0 0.00065 0.0015 0 0.0007375 0.001875 
0.000362945 0.00073598 0.00223117 0 0.0007375 0.001875 0 0.000825 0.00225 
0.000654517 0.000502228 0.00225 0.000779077 0.000264461 0.00224031 0.000686397 0.000264257 0.00186646 
0.000779077 0.000264461 0.00224031 0.0007375 0 0.001875 0.000686397 0.000264257 0.00186646 
0.000779077 0.000264461 0.00224031 0.000825 0 0.00225 0.0007375 0 0.001875 
0.000686397 0.000264257 0.00186646 0.0007375 0 0.001875 0.00065 0 0.0015 
0.000654517 0.000502228 0.00225 0.000551018 0.000463365 0.00179979 0.000362381 0.000637886 0.00185843 
0.000551018 0.000463365 0.00179979 0.000248176 0.00057948 0.00141595 0.000362381 0.000637886 0.00185843 
0.000551018 0.000463365 0.00179979 0.000446105 0.000423338 0.00135 0.000248176 0.00057948 0.00141595 
0.000362381 0.000637886 0.00185843 0.000248176 0.00057948 0.00141595 0 0.00065 0.0015 
0.00065 0 0.0015 0.000587858 0.000227042 0.00141505 0.000686397 0.000264257 0.00186646 
0.000587858 0.000227042 0.00141505 0.000551018 0.000463365 0.00179979 0.000686397 0.000264257 0.00186646 
0.000587858 0.000227042 0.00141505 0.000446105 0.000423338 0.00135 0.000551018 0.000463365 0.00179979 
0.000686397 0.000264257 0.00186646 0.000551018 0.000463365 0.00179979 0.000654517 0.000502228 0.00225 
0.000212132 0.000212132 0 0.000368955 0.000113658 0.00036885 0.000277164 0.000114805 0 
0.000368955 0.000113658 0.00036885 0.0003875 0 0.000375 0.000277164 0.000114805 0 
0.000368955 0.000113658 0.00036885 0.000475 0 0.00075 0.0003875 0 0.000375 
0.000277164 0.000114805 0 0.0003875 0 0.000375 0.0003 0 0 
0 0.000475 0.00075 0.00011651 0.000368011 0.000368632 0 0.0003875 0.000375 
0.00011651 0.000368011 0.000368632 0.000114805 0.000277164 0 0 0.0003875 0.000375 
0.00011651 0.000368011 0.000368632 0.000212132 0.000212132 0 0.000114805 0.000277164 0 
0 0.0003875 0.000375 0.000114805 0.000277164 0 0 0.0003 0 
0 0.000475 0.00075 0.000332005 0.000332005 0.000726539 0.00011651 0.000368011 0.000368632 
0.000332005 0.000332005 0.000726539 0.000368955 0.000113658 0.00036885 0.00011651 0.000368011 0.000368632 
0.000332005 0.000332005 0.000726539 0.000475 0 0.00075 0.000368955 0.000113658 0.00036885 
0.00011651 0.000368011 0.000368632 0.000368955 0.000113658 0.00036885 0.000212132 0.000212132 0 
0.000825 0 0.00225 0.0009125 0 0.002625 0.000825292 -0.000380893 0.00260978 
0.0009125 0 0.002625 0.00092388 -0.000382683 0.003 0.000825292 -0.000380893 0.00260978 
0.0009125 0 0.002625 0.001 0 0.003 0.00092388 -0.000382683 0.003 
0.000825292 -0.000380893 0.00260978 0.00092388 -0.000382683 0.003 0.000707107 -0.000707107 0.003 
0.000502228 -0.000654517 0.00225 0.000737502 -0.000363696 0.00223844 0.000605887 -0.000682184 0.00262457 
0.000737502 -0.000363696 0.00223844 0.000825292 -0.000380893 0.00260978 0.000605887 -0.000682184 0.00262457 
0.000737502 -0.000363696 0.00223844 0.000825 0 0.00225 0.000825292 -0.000380893 0.00260978 
0.000605887 -0.000682184 0.00262457 0.000825292 -0.000380893 0.00260978 0.000707107 -0.000707107 0.003 
0.000423338 -0.000446105 0.00135 0.000486134 -0.000241425 0.00104049 0.000581617 -0.000241734 0.00141365 
0.000486134 -0.000241425 0.00104049 0.0005625 0 0.001125 0.000581617 -0.000241734 0.00141365 
0.000486134 -0.000241425 0.00104049 0.000475 0 0.00075 0.0005625 0 0.001125 
0.000581617 -0.000241734 0.00141365 0.0005625 0 0.001125 0.00065 0 0.0015 
0.000423338 -0.000446105 0.00135 0.000233014 -0.000585983 0.00141691 0.000226839 -0.000493384 0.00104157 
0.000233014 -0.000585983 0.00141691 0 -0.0005625 0.001125 0.000226839 -0.000493384 0.00104157 
0.000233014 -0.000585983 0.00141691 0 -0.00065 0.0015 0 -0.0005625 0.001125 
0.000226839 -0.000493384 0.00104157 0 -0.0005625 0.001125 0 -0.000475 0.00075 
0.000475 0 0.00075 0.000486134 -0.000241425 0.00104049 0.000332005 -0.000332005 0.000726539 
0.000486134 -0.000241425 0.00104049 0.000226839 -0.000493384 0.00104157 0.000332005 -0.000332005 0.000726539 
0.000486134 -0.000241425 0.00104049 0.000423338 -0.000446105 0.00135 0.000226839 -0.000493384 0.00104157 
0.000332005 -0.000332005 0.000726539 0.000226839 -0.000493384 0.00104157 0 -0.000475 0.00075 
0 -0.001 0.003 0.000270287 -0.000868154 0.0026111 0.000382683 -0.00092388 0.003 
0.000270287 -0.000868154 0.0026111 0.000605887 -0.000682184 0.00262457 0.000382683 -0.00092388 0.003 
0.000270287 -0.000868154 0.0026111 0.000502228 -0.000654517 0.00225 0.000605887 -0.000682184 0.00262457 
0.000382683 -0.00092388 0.003 0.000605887 -0.000682184 0.00262457 0.000707107 -0.000707107 0.003 
0 -0.001 0.003 0 -0.0009125 0.002625 0.000270287 -0.000868154 0.0026111 
0 -0.0009125 0.002625 0.000264461 -0.000779077 0.00224031 0.000270287 -0.000868154 0.0026111 
0 -0.0009125 0.002625 0 -0.000825 0.00225 0.000264461 -0.000779077 0.00224031 
0.000270287 -0.000868154 0.0026111 0.000264461 -0.000779077 0.00224031 0.000502228 -0.000654517 0.00225 
0.000502228 -0.000654517 0.00225 0.000637899 -0.000362353 0.00185842 0.000737502 -0.000363696 0.00223844 
0.000637899 -0.000362353 0.00185842 0.0007375 0 0.001875 0.000737502 -0.000363696 0.00223844 
0.000637899 -0.000362353 0.00185842 0.00065 0 0.0015 0.0007375 0 0.001875 
0.000737502 -0.000363696 0.00223844 0.0007375 0 0.001875 0.000825 0 0.00225 
0.000502228 -0.000654517 0.00225 0.000264461 -0.000779077 0.00224031 0.000264698 -0.000686473 0.00186745 
0.000264461 -0.000779077 0.00224031 0 -0.0007375 0.001875 0.000264698 -0.000686473 0.00186745 
0.000264461 -0.000779077 0.00224031 0 -0.000825 0.00225 0 -0.0007375 0.001875 
0.000264698 -0.000686473 0.00186745 0 -0.0007375 0.001875 0 -0.00065 0.0015 
0.000502228 -0.000654517 0.00225 0.000463373 -0.000551012 0.00179979 0.000637899 -0.000362353 0.00185842 
0.000463373 -0.000551012 0.00179979 0.000581617 -0.000241734 0.00141365 0.000637899 -0.000362353 0.00185842 
0.000463373 -0.000551012 0.00179979 0.000423338 -0.000446105 0.00135 0.000581617 -0.000241734 0.00141365 
0.000637899 -0.000362353 0.00185842 0.000581617 -0.000241734 0.00141365 0.00065 0 0.0015 
0 -0.00065 0.0015 0.000233014 -0.000585983 0.00141691 0.000264698 -0.000686473 0.00186745 
0.000233014 -0.000585983 0.00141691 0.000463373 -0.000551012 0.00179979 0.000264698 -0.000686473 0.00186745 
0.000233014 -0.000585983 0.00141691 0.000423338 -0.000446105 0.00135 0.000463373 -0.000551012 0.00179979 
0.000264698 -0.000686473 0.00186745 0.000463373 -0.000551012 0.00179979 0.000502228 -0.000654517 0.00225 
0.000212132 -0.000212132 0 0.00011651 -0.000368011 0.000368632 0.000114805 -0.000277164 0 
0.00011651 -0.000368011 0.000368632 0 -0.0003875 0.000375 0.000114805 -0.000277164 0 
0.00011651 -0.000368011 0.000368632 0 -0.000475 0.00075 0 -0.0003875 0.000375 
0.000114805 -0.000277164 0 0 -0.0003875 0.000375 0 -0.0003 0 
0.000475 0 0.00075 0.000368955 -0.000113658 0.00036885 0.0003875 0 0.000375 
0.000368955 -0.000113658 0.00036885 0.000277164 -0.000114805 0 0.0003875 0 0.000375 
0.000368955 -0.000113658 0.00036885 0.000212132 -0.000212132 0 0.000277164 -0.000114805 0 
0.0003875 0 0.000375 0.000277164 -0.000114805 0 0.0003 0 0 
0.000475 0 0.00075 0.000332005 -0.000332005 0.000726539 0.000368955 -0.000113658 0.00036885 
[...]
CELL_DATA 320
FIELD FieldData 2
meshid 1 320 int
0 1 2 3 4 5 6 7 8 
9 10 11 12 13 14 15 16 17 
18 19 20 21 22 23 24 25 26 
27 28 29 30 31 32 33 34 35 
36 37 38 39 40 41 42 43 44 
45 46 47 48 49 50 51 52 53 
54 55 56 57 58 59 60 61 62 
63 64 65 66 67 68 69 70 71 
72 73 74 75 76 77 78 79 80 
81 82 83 84 85 86 87 88 89 
90 91 92 93 94 95 96 97 98 
99 100 101 102 103 104 105 106 107 
108 109 110 111 112 113 114 115 116 
117 118 119 120 121 122 123 124 125 
126 127 128 129 130 131 132 133 134 
135 136 137 138 139 140 141 142 143 
144 145 146 147 148 149 150 151 152 
153 154 155 156 157 158 159 160 161 
162 163 164 165 166 167 168 169 170 
171 172 173 174 175 176 177 178 179 
180 181 182 183 184 185 186 187 188 
189 190 191 192 193 194 195 196 197 
198 199 200 201 202 203 204 205 206 
207 208 209 210 211 212 213 214 215 
216 217 218 219 220 221 222 223 0 
1 2 3 4 5 6 7 8 9 
10 11 12 13 14 15 16 17 18 
19 20 21 22 23 24 25 26 27 
28 29 30 31 32 33 34 35 36 
37 38 39 40 41 42 43 44 45 
46 47 48 49 50 51 52 53 54 
55 56 57 58 59 60 61 62 63 
64 65 66 67 68 69 70 71 72 
73 74 75 76 77 78 79 80 81 
82 83 84 85 86 87 88 89 90 
91 92 93 94 95 
v 3 320 double
0 0 0 0 0 0 0 0 0 
0 0 0 0 0 0 0 0 0 
0 0 0 0 0 0 0 0 0 
0 0 0 0 0 0 0 0 0 
0 0 0 0 0 0 0 0 0 
0 0 0 0 0 0 0 0 0 
0 0 0 0 0 0 0 0 0 
0 0 0 0 0 0 0 0 0 
0 0 0 0 0 0 0 0 0 
0 0 0 0 0 0 0 0 0 
0 0 0 0 0 0 0 0 0 
0 0 0 0 0 0 0 0 0 
0 0 0 0 0 0 0 0 0 
0 0 0 0 0 0 0 0 0 
0 0 0 0 0 0 0 0 0 
0 0 0 0 0 0 0 0 0 
0 0 0 0 0 0 0 0 0 
0 0 0 0 0 0 0 0 0 
0 0 0 0 0 0 0 0 0 
0 0 0 0 0 0 0 0 0 
0 0 0 0 0 0 0 0 0 
0 0 0 0 0 0 0 0 0 
0 0 0 0 0 0 0 0 0 
0 0 0 0 0 0 0 0 0 
0 0 0 0 0 0 0 0 0 
0 0 0 0 0 0 0 0 0 
0 0 0 0 0 0 0 0 0 
0 0 0 0 0 0 0 0 0 
0 0 0 0 0 0 0 0 0 
0 0 0 0 0 0 0 0 0 
0 0 0 0 0 0 0 0 0 
0 0 0 0 0 0 0 0 0 
0 0 0 0 0 0 0 0 0 
0 0 0 0 0 0 0 0 0 
0 0 0 0 0 0 0 0 0 
0 0 0 0 0 0 0 0 0 
0 0 0 0 0 0 0 0 0 
0 0 0 0 0 0 0 0 0 
0 0 0 0 0 0 0 0 0 
0 0 0 0 0 0 0 0 0 
0 0 0 0 0 0 0 0 0 
0 0 0 0 0 0 0 0 0 
0 0 0 0 0 0 0 0 0 
0 0 0 0 0 0 0 0 0 
0 0 0 0 0 0 0 0 0 
0 0 0 0 0 0 0 0 0 
0 0 0 0 0 0 0 0 0 
0 0 0 0 0 0 0 0 0 
0 0 0 0 0 0 0 0 0 
0 0 0 0 0 0 0 0 0 
0 0 0 0 0 0 0 0 0 
0 0 0 0 0 0 0 0 0 
0 0 0 0 0 0 0 0 0 
0 0 0 0 0 0 0 0 0 
0 0 0 0 0 0 0 0 0 
0 0 0 0 0 0 0 0 0 
0 0 0 0 0 0 0 0 0 
0 0 0 0 0 0 0 0 0 
0 0 0 0 0 0 0 0 0 
0 0 0 0 0 0 0 0 0 
0 0 0 0 0 0 0 0 0 
0 0 0 0 0 0 0 0 0 
0 0 0 0 0 0 0 0 0 
0 0 0 0 0 0 0 0 0 
0 0 0 0 0 0 0 0 0 
0 0 0 0 0 0 0 0 0 
0 0 0 0 0 0 0 0 0 
0 0 0 0 0 0 0 0 0 
0 0 0 0 0 0 0 0 0 
0 0 0 0 0 0 0 0 0 
0 0 0 0 0 0 0 0 0 
0 0 0 0 0 0 0 0 0 
0 0 0 0 0 0 0 0 0 
0 0 0 0 0 0 0 0 0 
0 0 0 0 0 0 0.0400873 -0.0429269 0 
0.0432429 -0.0350217 0 0.0368461 -0.0284443 0 0.0527953 -0.033694 0 
-0.0400873 0.0429269 0 -0.0432429 0.0350217 0 -0.0368461 0.0284443 0 
-0.0527953 0.033694 0 -0.0163544 0.00051835 0 -0.0200009 0.0102696 0 
-0.0252251 0.0160682 0 -0.0184231 0.0142222 0 0.0163544 -0.00051835 0 
0.0200009 -0.0102696 0 0.0252251 -0.0160682 0 0.0184231 -0.0142222 0 
-0.00916154 -0.00158733 0 -0.00561508 0.00605825 0 -0.0112302 0.0121165 0 
0.00354646 0.00764558 0 -0.00354646 -0.00764558 0 0.00561508 -0.00605825 0 
0.00916154 0.00158733 0 0.0112302 -0.0121165 0 0.0253106 -0.038456 0 
0.0136896 -0.0260799 0 0.000490808 -0.0176564 0 0.0152674 -0.0221273 0 
0.0325035 -0.0405616 0 0.0280754 -0.0302912 0 0.0224603 -0.024233 0 
0.0292624 -0.0260791 0 -0.0253106 0.038456 0 -0.0136896 0.0260799 0 
-0.000490808 0.0176564 0 -0.0152674 0.0221273 0 -0.0325035 0.0405616 0 
-0.0280754 0.0302912 0 -0.0224603 0.024233 0 -0.0292624 0.0260791 0 
0.048758 -0.0236832 0 0.0351683 -0.0150001 0 0.0328088 -0.0184335 0 
0.0239382 -0.0028836 0 -0.048758 0.0236832 0 -0.0351683 0.0150001 0 
-0.0328088 0.0184335 0 -0.0239382 0.0028836 0 -0.000558356 0.00849338 0 
0.0081162 0.00427875 0 0.00867455 -0.00421463 0 0.0162324 0.00855753 0 
-0.00867455 0.00421463 0 -0.0081162 -0.00427875 0 -0.0162324 -0.00855753 0 
0.000558356 -0.00849338 0 0.0443508 0.0287845 0 0.0378695 0.0206373 0 
0.0311091 0.0167368 0 0.0381487 0.0163906 0 -0.0443508 -0.0287845 0 
-0.0378695 -0.0206373 0 -0.0311091 -0.0167368 0 -0.0381487 -0.0163906 0 
0.0518423 0.0285644 0 0.0528526 0.0201971 0 0.0456402 0.0161705 0 
0.0610752 0.0158564 0 -0.0518423 -0.0285644 0 -0.0528526 -0.0201971 0 
-0.0456403 -0.0161705 0 -0.0610752 -0.0158564 0 0.0364073 0.0288785 0 
0.0219826 0.0208253 0 0.00637483 0.0167667 0 0.0231656 0.0168308 0 
-0.0364073 -0.0288785 0 -0.0219826 -0.0208253 0 -0.00637483 -0.0167667 0 
-0.0231656 -0.0168308 0 0.054142 0.00758308 0 0.0389862 0.00365054 0 
0.038707 0.00789724 0 0.0241096 -0.00452874 0 -0.054142 -0.00758308 0 
-0.0389862 -0.00365054 0 -0.0387071 -0.00789721 0 -0.0241096 0.00452874 0 
-0.016618 0.00430863 0 -0.0240031 -0.00409074 0 -0.0312155 -0.00811731 0 
-0.0241759 -0.00846352 0 0.016618 -0.00430863 0 0.0240031 0.00409074 0 
0.0312155 0.00811734 0 0.0241759 0.00846352 0 
