ITEM: TIMESTEP
3000
ITEM: NUMBER OF ATOMS
571
ITEM: BOX BOUNDS ff ff ff
-0.001 0.001
-0.001 0.001
0 0.004
ITEM: ATOMS id type x y z radius vx vy vz fx fy fz 
1 1 0.000271572 0.000302445 0.00265138 5e-05 0 0 -0.0294251 0 0 -5.1365e-09 
2 1 -0.000201664 -0.000364049 0.0028911 5e-05 0 0 -0.0294251 0 0 -5.1365e-09 
3 1 -5.00561e-05 -0.000292985 0.00226112 5e-05 0 0 -0.0294251 0 0 -5.1365e-09 
4 1 -0.000137401 -0.000305893 0.00231705 5e-05 0 0 -0.0294251 0 0 -5.1365e-09 
5 1 -8.72862e-05 -1.87751e-05 0.00290203 5e-05 0 0 -0.0294251 0 0 -5.1365e-09 
6 1 -0.000317241 0.00013215 0.00250003 5e-05 0 0 -0.0294251 0 0 -5.1365e-09 
7 1 0.00023225 0.000422733 0.00232623 5e-05 0 0 -0.0294251 0 0 -5.1365e-09 
8 1 0.000156498 0.00025365 0.00255821 5e-05 0 0 -0.0294251 0 0 -5.1365e-09 
9 1 -0.000262713 -0.000423583 0.00229978 5e-05 0 0 -0.0294251 0 0 -5.1365e-09 
10 1 -0.000421942 0.000416771 0.00213228 5e-05 0 0 -0.0294251 0 0 -5.1365e-09 
11 1 0.000370448 0.000113983 0.00216296 5e-05 0 0 -0.0294251 0 0 -5.1365e-09 
12 1 9.2478e-05 0.000277228 0.00282413 5e-05 0 0 -0.0294251 0 0 -5.1365e-09 
13 1 0.000424331 -0.000261447 0.00231135 5e-05 0 0 -0.0294251 0 0 -5.1365e-09 
14 1 1.53269e-05 -0.000400663 0.00250578 5e-05 0 0 -0.0294251 0 0 -5.1365e-09 
15 1 -0.000211164 -3.05592e-05 0.00284757 5e-05 0 0 -0.0294251 0 0 -5.1365e-09 
16 1 0.000412229 0.000333438 0.00255424 5e-05 0 0 -0.0294251 0 0 -5.1365e-09 
17 1 0.000283389 -7.27164e-05 0.00231133 5e-05 0 0 -0.0294251 0 0 -5.1365e-09 
18 1 -0.000279422 -0.000245303 0.00265374 5e-05 0 0 -0.0294251 0 0 -5.1365e-09 
19 1 -0.000433782 0.000422513 0.00262565 5e-05 0 0 -0.0294251 0 0 -5.1365e-09 
20 1 1.30833e-05 -0.000109308 0.00231722 5e-05 0 0 -0.0294251 0 0 -5.1365e-09 
21 1 0.000373248 0.000176485 0.00263285 5e-05 0 0 -0.0294251 0 0 -5.1365e-09 
22 1 7.49544e-05 -0.00024218 0.0021359 5e-05 0 0 -0.0294251 0 0 -5.1365e-09 
23 1 0.000244402 -0.000340648 0.0021841 5e-05 0 0 -0.0294251 0 0 -5.1365e-09 
24 1 0.000420286 -0.000249681 0.00207503 5e-05 0 0 -0.0294251 0 0 -5.1365e-09 
25 1 0.000177835 -0.000119492 0.00215514 5e-05 0 0 -0.0294251 0 0 -5.1365e-09 
26 1 -0.000427857 1.1732e-06 0.00217387 5e-05 0 0 -0.0294251 0 0 -5.1365e-09 
27 1 0.000446888 -0.000149694 0.00254572 5e-05 0 0 -0.0294251 0 0 -5.1365e-09 
28 1 6.01042e-05 0.000171249 0.00264387 5e-05 0 0 -0.0294251 0 0 -5.1365e-09 
29 1 -0.000348083 -0.000237298 0.00218073 5e-05 0 0 -0.0294251 0 0 -5.1365e-09 
30 1 -0.000285657 -3.05963e-05 0.00222427 5e-05 0 0 -0.0294251 0 0 -5.1365e-09 
31 1 -0.000435716 -7.26273e-05 0.00280851 5e-05 0 0 -0.0294251 0 0 -5.1365e-09 
32 1 -0.00010055 5.28332e-05 0.00242397 5e-05 0 0 -0.0294251 0 0 -5.1365e-09 
33 1 -6.12653e-05 0.000314857 0.00226073 5e-05 0 0 -0.0294251 0 0 -5.1365e-09 
34 1 0.000306778 1.35669e-05 0.00247407 5e-05 0 0 -0.0294251 0 0 -5.1365e-09 
35 1 0.00038363 -0.000328853 0.00243131 5e-05 0 0 -0.0294251 0 0 -5.1365e-09 
36 1 0.000250422 -0.000160493 0.00204684 5e-05 0 0 -0.0294251 0 0 -5.1365e-09 
37 1 0.000405236 -0.000193208 0.00221106 5e-05 0 0 -0.0294251 0 0 -5.1365e-09 
38 1 -0.000449893 -0.000358578 0.00283339 5e-05 0 0 -0.0294251 0 0 -5.1365e-09 
39 1 -7.86327e-05 0.000420069 0.00255898 5e-05 0 0 -0.0294251 0 0 -5.1365e-09 
40 1 -9.4722e-05 8.00742e-06 0.0020365 5e-05 0 0 -0.0294251 0 0 -5.1365e-09 
41 1 -1.42964e-05 -0.000279941 0.00248039 5e-05 0 0 -0.0294251 0 0 -5.1365e-09 
42 1 -0.000186553 -0.000394077 0.00219906 5e-05 0 0 -0.0294251 0 0 -5.1365e-09 
43 1 -0.000273111 -0.000171797 0.00207159 5e-05 0 0 -0.0294251 0 0 -5.1365e-09 
44 1 0.000448579 0.000270717 0.0023973 5e-05 0 0 -0.0294251 0 0 -5.1365e-09 
45 1 -0.000403464 -1.74941e-05 0.00243216 5e-05 0 0 -0.0294251 0 0 -5.1365e-09 
46 1 -0.000413579 -2.78352e-05 0.0026294 5e-05 0 0 -0.0294251 0 0 -5.1365e-09 
47 1 -0.000336745 0.000325104 0.00247823 5e-05 0 0 -0.0294251 0 0 -5.1365e-09 
48 1 -0.000129596 -0.000127124 0.00288942 5e-05 0 0 -0.0294251 0 0 -5.1365e-09 
49 1 -0.000320099 9.09605e-05 0.00222974 5e-05 0 0 -0.0294251 0 0 -5.1365e-09 
50 1 0.000412621 -8.08128e-05 0.00223528 5e-05 0 0 -0.0294251 0 0 -5.1365e-09 
51 1 -0.000438879 -0.000242405 0.0023518 5e-05 0 0 -0.0294251 0 0 -5.1365e-09 
52 1 0.000264394 -0.000330025 0.00272082 5e-05 0 0 -0.0294251 0 0 -5.1365e-09 
53 1 1.40413e-05 -7.49236e-06 0.00253179 5e-05 0 0 -0.0294251 0 0 -5.1365e-09 
54 1 1.66638e-05 6.87801e-05 0.00244323 5e-05 0 0 -0.0294251 0 0 -5.1365e-09 
55 1 0.000306007 5.20272e-05 0.00287623 5e-05 0 0 -0.0294251 0 0 -5.1365e-09 
56 1 -2.63377e-05 0.000341584 0.00245571 5e-05 0 0 -0.0294251 0 0 -5.1365e-09 
57 1 0.000338749 0.000350902 0.00206673 5e-05 0 0 -0.0294251 0 0 -5.1365e-09 
58 1 -0.000285584 0.000193276 0.00284051 5e-05 0 0 -0.0294251 0 0 -5.1365e-09 
59 1 -0.000386641 -0.000282297 0.00288357 5e-05 0 0 -0.0294251 0 0 -5.1365e-09 
60 1 0.000210593 0.000443781 0.00208673 5e-05 0 0 -0.0294251 0 0 -5.1365e-09 
61 1 -0.000309077 0.000346278 0.00235849 5e-05 0 0 -0.0294251 0 0 -5.1365e-09 
62 1 0.000332885 -0.000207748 0.00283844 5e-05 0 0 -0.0294251 0 0 -5.1365e-09 
63 1 -0.000204389 -0.000174206 0.00257192 5e-05 0 0 -0.0294251 0 0 -5.1365e-09 
64 1 8.66317e-05 1.86175e-05 0.00236003 5e-05 0 0 -0.0294251 0 0 -5.1365e-09 
65 1 0.000146763 -0.000358822 0.00274034 5e-05 0 0 -0.0294251 0 0 -5.1365e-09 
66 1 0.000157386 0.000193062 0.00225433 5e-05 0 0 -0.0294251 0 0 -5.1365e-09 
67 1 -0.000401883 -0.000440655 0.00237391 5e-05 0 0 -0.0294251 0 0 -5.1365e-09 
68 1 -0.000344697 -0.000330523 0.00235283 5e-05 0 0 -0.0294251 0 0 -5.1365e-09 
69 1 0.00015327 3.9901e-06 0.00251749 5e-05 0 0 -0.0294251 0 0 -5.1365e-09 
70 1 7.44163e-05 -0.000284611 0.00200623 5e-05 0 0 -0.0294251 0 0 -5.1365e-09 
71 1 0.000355586 0.000341638 0.00235845 5e-05 0 0 -0.0294251 0 0 -5.1365e-09 
72 1 0.000284183 0.000259582 0.00224881 5e-05 0 0 -0.0294251 0 0 -5.1365e-09 
73 1 0.00031044 -0.000428298 0.00205288 5e-05 0 0 -0.0294251 0 0 -5.1365e-09 
74 1 0.000433944 0.000297299 0.00216669 5e-05 0 0 -0.0294251 0 0 -5.1365e-09 
75 1 -0.000331226 8.0141e-05 0.00238588 5e-05 0 0 -0.0294251 0 0 -5.1365e-09 
76 1 -0.000315043 6.9631e-05 0.00274417 5e-05 0 0 -0.0294251 0 0 -5.1365e-09 
77 1 9.25161e-05 -8.1816e-05 0.00237437 5e-05 0 0 -0.0294251 0 0 -5.1365e-09 
78 1 0.000233403 -0.000191593 0.00234979 5e-05 0 0 -0.0294251 0 0 -5.1365e-09 
79 1 0.00011581 0.000412271 0.00248949 5e-05 0 0 -0.0294251 0 0 -5.1365e-09 
80 1 -0.000123645 -9.58171e-05 0.00205716 5e-05 0 0 -0.0294251 0 0 -5.1365e-09 
81 1 -0.000170237 -0.000180834 0.00217832 5e-05 0 0 -0.0294251 0 0 -5.1365e-09 
82 1 0.000183142 7.21679e-05 0.00238169 5e-05 0 0 -0.0294251 0 0 -5.1365e-09 
83 1 -0.000400737 -0.000187591 0.00262118 5e-05 0 0 -0.0294251 0 0 -5.1365e-09 
84 1 0.000411501 9.14863e-05 0.00206679 5e-05 0 0 -0.0294251 0 0 -5.1365e-09 
85 1 -0.000272351 -0.00039852 0.00252794 5e-05 0 0 -0.0294251 0 0 -5.1365e-09 
86 1 0.000294038 -0.000104673 0.00221567 5e-05 0 0 -0.0294251 0 0 -5.1365e-09 
87 1 -0.000116717 0.000337532 0.00236055 5e-05 0 0 -0.0294251 0 0 -5.1365e-09 
88 1 3.31667e-05 0.000433499 0.0022698 5e-05 0 0 -0.0294251 0 0 -5.1365e-09 
89 1 -0.000302222 -0.000443821 0.00214869 5e-05 0 0 -0.0294251 0 0 -5.1365e-09 
90 1 0.000214569 0.000254811 0.00206665 5e-05 0 0 -0.0294251 0 0 -5.1365e-09 
91 1 0.000108883 -7.3797e-07 0.00205281 5e-05 0 0 -0.0294251 0 0 -5.1365e-09 
92 1 -0.000258587 -6.91003e-05 0.00208778 5e-05 0 0 -0.0294251 0 0 -5.1365e-09 
93 1 0.000436645 -0.00031087 0.00265955 5e-05 0 0 -0.0294251 0 0 -5.1365e-09 
94 1 0.000359089 0.000203628 0.00282693 5e-05 0 0 -0.0294251 0 0 -5.1365e-09 
95 1 -0.000336751 0.000221522 0.00257561 5e-05 0 0 -0.0294251 0 0 -5.1365e-09 
96 1 -7.53104e-05 0.000258709 0.00258529 5e-05 0 0 -0.0294251 0 0 -5.1365e-09 
97 1 8.54365e-05 -6.8761e-05 0.00278992 5e-05 0 0 -0.0294251 0 0 -5.1365e-09 
98 1 4.84891e-05 -4.41644e-05 0.00218518 5e-05 0 0 -0.0294251 0 0 -5.1365e-09 
99 1 -0.000234978 -0.000279958 0.00219807 5e-05 0 0 -0.0294251 0 0 -5.1365e-09 
100 1 0.000393701 -5.93712e-05 0.00260398 5e-05 0 0 -0.0294251 0 0 -5.1365e-09 
101 1 -0.000358282 0.000360104 0.00272622 5e-05 0 0 -0.0294251 0 0 -5.1365e-09 
102 1 0.000211556 -0.000385375 0.00246459 5e-05 0 0 -0.0294251 0 0 -5.1365e-09 
103 1 -0.000411145 -0.000114699 0.00270223 5e-05 0 0 -0.0294251 0 0 -5.1365e-09 
104 1 -7.53372e-05 -0.000192129 0.002351 5e-05 0 0 -0.0294251 0 0 -5.1365e-09 
105 1 0.000440851 0.00039039 0.00273321 5e-05 0 0 -0.0294251 0 0 -5.1365e-09 
106 1 0.00022594 0.000365263 0.0024293 5e-05 0 0 -0.0294251 0 0 -5.1365e-09 
107 1 1.46697e-05 -0.000447036 0.00212546 5e-05 0 0 -0.0294251 0 0 -5.1365e-09 
108 1 -0.00023107 0.00041374 0.00218567 5e-05 0 0 -0.0294251 0 0 -5.1365e-09 
109 1 -0.000330627 0.000152569 0.00267769 5e-05 0 0 -0.0294251 0 0 -5.1365e-09 
110 1 0.000156147 0.000368315 0.00271998 5e-05 0 0 -0.0294251 0 0 -5.1365e-09 
111 1 -0.000415536 8.82421e-05 0.0025411 5e-05 0 0 -0.0294251 0 0 -5.1365e-09 
112 1 -0.000289961 -0.000378219 0.00272997 5e-05 0 0 -0.0294251 0 0 -5.1365e-09 
113 1 -0.000430498 -0.000378246 0.00227774 5e-05 0 0 -0.0294251 0 0 -5.1365e-09 
114 1 0.000222987 -0.000264116 0.00245874 5e-05 0 0 -0.0294251 0 0 -5.1365e-09 
115 1 -0.000180977 0.000312177 0.00220947 5e-05 0 0 -0.0294251 0 0 -5.1365e-09 
116 1 -0.000187698 0.000361992 0.00245638 5e-05 0 0 -0.0294251 0 0 -5.1365e-09 
117 1 -9.83971e-05 0.000239781 0.00245731 5e-05 0 0 -0.0294251 0 0 -5.1365e-09 
118 1 0.00013468 -0.000438516 0.00232447 5e-05 0 0 -0.0294251 0 0 -5.1365e-09 
119 1 1.73984e-05 0.000414181 0.00259717 5e-05 0 0 -0.0294251 0 0 -5.1365e-09 
120 1 0.000309946 0.000262571 0.00248782 5e-05 0 0 -0.0294251 0 0 -5.1365e-09 
121 1 0.000356982 -0.000195995 0.00236355 5e-05 0 0 -0.0294251 0 0 -5.1365e-09 
122 1 0.000145488 0.000220648 0.00289187 5e-05 0 0 -0.0294251 0 0 -5.1365e-09 
123 1 -0.000409038 0.000292249 0.00228499 5e-05 0 0 -0.0294251 0 0 -5.1365e-09 
124 1 -4.17136e-05 -8.07542e-05 0.00222085 5e-05 0 0 -0.0294251 0 0 -5.1365e-09 
125 1 -1.67561e-05 0.000380214 0.00270427 5e-05 0 0 -0.0294251 0 0 -5.1365e-09 
126 1 -0.000219952 0.000263814 0.00237489 5e-05 0 0 -0.0294251 0 0 -5.1365e-09 
127 1 1.93245e-05 -0.000212935 0.00266251 5e-05 0 0 -0.0294251 0 0 -5.1365e-09 
128 1 -0.00035203 0.00043902 0.00205888 5e-05 0 0 -0.0294251 0 0 -5.1365e-09 
129 1 -0.000205197 0.000253883 0.00247352 5e-05 0 0 -0.0294251 0 0 -5.1365e-09 
130 1 -0.000412305 0.000388312 0.00281671 5e-05 0 0 -0.0294251 0 0 -5.1365e-09 
131 1 -5.28473e-05 -0.000204939 0.00205213 5e-05 0 0 -0.0294251 0 0 -5.1365e-09 
132 1 0.000312488 -1.65036e-05 0.00207972 5e-05 0 0 -0.0294251 0 0 -5.1365e-09 
133 1 6.24957e-05 0.000364664 0.00237017 5e-05 0 0 -0.0294251 0 0 -5.1365e-09 
134 1 0.000270017 0.000182219 0.00201881 5e-05 0 0 -0.0294251 0 0 -5.1365e-09 
135 1 0.000357955 0.000151482 0.00241775 5e-05 0 0 -0.0294251 0 0 -5.1365e-09 
136 1 0.000396497 -7.70583e-05 0.00233768 5e-05 0 0 -0.0294251 0 0 -5.1365e-09 
137 1 -0.000349865 -0.000184243 0.00288357 5e-05 0 0 -0.0294251 0 0 -5.1365e-09 
138 1 -0.000148943 -0.000281414 0.00273245 5e-05 0 0 -0.0294251 0 0 -5.1365e-09 
139 1 0.000371189 -0.000423792 0.00278146 5e-05 0 0 -0.0294251 0 0 -5.1365e-09 
140 1 0.000160011 0.000310995 0.00234142 5e-05 0 0 -0.0294251 0 0 -5.1365e-09 
141 1 0.000215902 -0.000333261 0.0023329 5e-05 0 0 -0.0294251 0 0 -5.1365e-09 
142 1 -0.000200629 2.7537e-05 0.00227008 5e-05 0 0 -0.0294251 0 0 -5.1365e-09 
143 1 0.000441243 -2.86591e-05 0.00278159 5e-05 0 0 -0.0294251 0 0 -5.1365e-09 
144 1 0.000157534 -0.000330033 0.0025966 5e-05 0 0 -0.0294251 0 0 -5.1365e-09 
145 1 -0.000316771 3.64385e-05 0.00287839 5e-05 0 0 -0.0294251 0 0 -5.1365e-09 
146 1 0.000199801 5.09565e-05 0.0028818 5e-05 0 0 -0.0294251 0 0 -5.1365e-09 
147 1 0.000299246 0.000432571 0.00266918 5e-05 0 0 -0.0294251 0 0 -5.1365e-09 
148 1 4.48789e-05 0.000278887 0.00270901 5e-05 0 0 -0.0294251 0 0 -5.1365e-09 
149 1 0.000183425 -0.000176287 0.00260363 5e-05 0 0 -0.0294251 0 0 -5.1365e-09 
150 1 0.00036429 -0.000373644 0.00261954 5e-05 0 0 -0.0294251 0 0 -5.1365e-09 
151 1 4.01409e-05 -0.000351501 0.00277825 5e-05 0 0 -0.0294251 0 0 -5.1365e-09 
152 1 0.000227131 0.000393787 0.00283524 5e-05 0 0 -0.0294251 0 0 -5.1365e-09 
153 1 -0.000187538 5.06082e-05 0.00202735 5e-05 0 0 -0.0294251 0 0 -5.1365e-09 
154 1 -0.00014673 -8.93019e-05 0.00255853 5e-05 0 0 -0.0294251 0 0 -5.1365e-09 
155 1 0.000144335 -0.00016267 0.00246118 5e-05 0 0 -0.0294251 0 0 -5.1365e-09 
156 1 0.000106839 -0.000353678 0.00219014 5e-05 0 0 -0.0294251 0 0 -5.1365e-09 
157 1 -0.000170145 0.000380237 0.00210015 5e-05 0 0 -0.0294251 0 0 -5.1365e-09 
158 1 0.000102579 4.8356e-05 0.0021744 5e-05 0 0 -0.0294251 0 0 -5.1365e-09 
159 1 0.000382197 -0.000412039 0.0023227 5e-05 0 0 -0.0294251 0 0 -5.1365e-09 
160 1 -0.000305358 -0.000152204 0.00237074 5e-05 0 0 -0.0294251 0 0 -5.1365e-09 
161 1 0.000162142 0.000118739 0.00210584 5e-05 0 0 -0.0294251 0 0 -5.1365e-09 
162 1 6.40447e-05 0.000399082 0.00282242 5e-05 0 0 -0.0294251 0 0 -5.1365e-09 
163 1 3.45217e-05 0.000205502 0.00232661 5e-05 0 0 -0.0294251 0 0 -5.1365e-09 
164 1 0.000200942 0.000226586 0.0026942 5e-05 0 0 -0.0294251 0 0 -5.1365e-09 
165 1 -0.00040805 -9.14455e-05 0.00253067 5e-05 0 0 -0.0294251 0 0 -5.1365e-09 
166 1 0.00040683 -0.000408101 0.00250489 5e-05 0 0 -0.0294251 0 0 -5.1365e-09 
167 1 -0.000218078 -0.000238595 0.00238555 5e-05 0 0 -0.0294251 0 0 -5.1365e-09 
168 1 -0.000416383 -0.000154122 0.00212654 5e-05 0 0 -0.0294251 0 0 -5.1365e-09 
169 1 -1.90972e-05 3.34786e-05 0.0021305 5e-05 0 0 -0.0294251 0 0 -5.1365e-09 
170 1 0.000172303 -0.00010705 0.0022598 5e-05 0 0 -0.0294251 0 0 -5.1365e-09 
171 1 -0.000276533 0.000308999 0.0028045 5e-05 0 0 -0.0294251 0 0 -5.1365e-09 
172 1 0.000135109 -0.000229944 0.00278269 5e-05 0 0 -0.0294251 0 0 -5.1365e-09 
173 1 3.47608e-06 0.000422481 0.00209101 5e-05 0 0 -0.0294251 0 0 -5.1365e-09 
174 1 0.000132347 0.000364288 0.00204322 5e-05 0 0 -0.0294251 0 0 -5.1365e-09 
175 1 0.00042977 0.00014862 0.00231856 5e-05 0 0 -0.0294251 0 0 -5.1365e-09 
176 1 0.000299656 0.00031227 0.00277801 5e-05 0 0 -0.0294251 0 0 -5.1365e-09 
177 1 0.000146988 0.000425369 0.00262859 5e-05 0 0 -0.0294251 0 0 -5.1365e-09 
178 1 -6.84365e-05 -0.00021245 0.00280343 5e-05 0 0 -0.0294251 0 0 -5.1365e-09 
179 1 -0.000236493 0.000261567 0.00261164 5e-05 0 0 -0.0294251 0 0 -5.1365e-09 
180 1 -0.000133097 3.80985e-05 0.00277783 5e-05 0 0 -0.0294251 0 0 -5.1365e-09 
181 1 0.000102177 0.000288376 0.00219912 5e-05 0 0 -0.0294251 0 0 -5.1365e-09 
182 1 -0.00030772 0.000152592 0.00207696 5e-05 0 0 -0.0294251 0 0 -5.1365e-09 
183 1 -0.000312053 0.000329432 0.00221511 5e-05 0 0 -0.0294251 0 0 -5.1365e-09 
184 1 -0.000425589 0.000120976 0.00270013 5e-05 0 0 -0.0294251 0 0 -5.1365e-09 
185 1 -0.000135305 -7.63211e-05 0.00272737 5e-05 0 0 -0.0294251 0 0 -5.1365e-09 
186 1 0.000438566 -1.64454e-05 0.00205857 5e-05 0 0 -0.0294251 0 0 -5.1365e-09 
187 1 0.000364933 0.000423098 0.00247056 5e-05 0 0 -0.0294251 0 0 -5.1365e-09 
188 1 -2.52493e-05 -0.000364395 0.00206243 5e-05 0 0 -0.0294251 0 0 -5.1365e-09 
189 1 0.0004453 0.000154521 0.00249267 5e-05 0 0 -0.0294251 0 0 -5.1365e-09 
190 1 0.000277553 -0.000172115 0.00272045 5e-05 0 0 -0.0294251 0 0 -5.1365e-09 
191 1 -0.000318568 -0.000178849 0.0025451 5e-05 0 0 -0.0294251 0 0 -5.1365e-09 
192 1 -1.76605e-05 0.000179722 0.00203907 5e-05 0 0 -0.0294251 0 0 -5.1365e-09 
193 1 -0.000210799 9.78401e-05 0.00285488 5e-05 0 0 -0.0294251 0 0 -5.1365e-09 
194 1 0.000378296 1.39361e-05 0.00267943 5e-05 0 0 -0.0294251 0 0 -5.1365e-09 
195 1 0.000378894 7.932e-05 0.00258723 5e-05 0 0 -0.0294251 0 0 -5.1365e-09 
196 1 -0.000194705 -0.000407115 0.00207253 5e-05 0 0 -0.0294251 0 0 -5.1365e-09 
197 1 -0.000128913 0.000361063 0.00284096 5e-05 0 0 -0.0294251 0 0 -5.1365e-09 
198 1 0.000415644 -0.000267727 0.00277015 5e-05 0 0 -0.0294251 0 0 -5.1365e-09 
199 1 0.000409985 -0.000380998 0.00202772 5e-05 0 0 -0.0294251 0 0 -5.1365e-09 
200 1 -0.000114619 -0.000401254 0.00257815 5e-05 0 0 -0.0294251 0 0 -5.1365e-09 
201 1 2.80777e-05 -9.87543e-05 0.002693 5e-05 0 0 -0.0294251 0 0 -5.1365e-09 
202 1 -8.09043e-05 0.000241428 0.00213163 5e-05 0 0 -0.0294251 0 0 -5.1365e-09 
203 1 3.53251e-05 -0.000291608 0.00239325 5e-05 0 0 -0.0294251 0 0 -5.1365e-09 
204 1 -0.000231868 -9.34408e-06 0.00240984 5e-05 0 0 -0.0294251 0 0 -5.1365e-09 
205 1 0.000255496 0.000128524 0.00256072 5e-05 0 0 -0.0294251 0 0 -5.1365e-09 
206 1 -0.000130447 -0.000414395 0.00271103 5e-05 0 0 -0.0294251 0 0 -5.1365e-09 
207 1 -0.000150797 -0.000439051 0.0023287 5e-05 0 0 -0.0294251 0 0 -5.1365e-09 
208 1 0.000445771 7.60356e-05 0.00238571 5e-05 0 0 -0.0294251 0 0 -5.1365e-09 
209 1 -0.000255833 0.000219585 0.00202193 5e-05 0 0 -0.0294251 0 0 -5.1365e-09 
210 1 -0.000361018 0.000368782 0.00257032 5e-05 0 0 -0.0294251 0 0 -5.1365e-09 
211 1 0.000160139 0.000447875 0.00289294 5e-05 0 0 -0.0294251 0 0 -5.1365e-09 
212 1 0.000271844 -0.000112429 0.00285379 5e-05 0 0 -0.0294251 0 0 -5.1365e-09 
213 1 -0.000174918 0.00014826 0.00225423 5e-05 0 0 -0.0294251 0 0 -5.1365e-09 
214 1 -0.000230018 9.22873e-05 0.00252919 5e-05 0 0 -0.0294251 0 0 -5.1365e-09 
215 1 0.000374176 -0.000226203 0.00265852 5e-05 0 0 -0.0294251 0 0 -5.1365e-09 
216 1 0.000143754 6.58184e-05 0.00266579 5e-05 0 0 -0.0294251 0 0 -5.1365e-09 
217 1 -5.155e-05 -0.000400885 0.00277837 5e-05 0 0 -0.0294251 0 0 -5.1365e-09 
218 1 0.000443708 0.000395233 0.00214201 5e-05 0 0 -0.0294251 0 0 -5.1365e-09 
219 1 -6.0276e-05 -5.90622e-05 0.00279712 5e-05 0 0 -0.0294251 0 0 -5.1365e-09 
220 1 -0.000369711 0.000272882 0.00278991 5e-05 0 0 -0.0294251 0 0 -5.1365e-09 
221 1 0.000250503 0.000198931 0.00289756 5e-05 0 0 -0.0294251 0 0 -5.1365e-09 
222 1 0.000442057 -0.000340112 0.00218764 5e-05 0 0 -0.0294251 0 0 -5.1365e-09 
223 1 -6.13182e-05 0.000424631 0.00223194 5e-05 0 0 -0.0294251 0 0 -5.1365e-09 
224 1 -0.000414029 0.000407212 0.00246646 5e-05 0 0 -0.0294251 0 0 -5.1365e-09 
225 1 0.000274241 0.000160689 0.00216092 5e-05 0 0 -0.0294251 0 0 -5.1365e-09 
226 1 -0.000426651 0.000284821 0.00244863 5e-05 0 0 -0.0294251 0 0 -5.1365e-09 
227 1 -0.000394439 -0.000344516 0.00217194 5e-05 0 0 -0.0294251 0 0 -5.1365e-09 
228 1 0.00023677 0.000392501 0.00221888 5e-05 0 0 -0.0294251 0 0 -5.1365e-09 
229 1 -5.26982e-05 0.000301918 0.00278951 5e-05 0 0 -0.0294251 0 0 -5.1365e-09 
230 1 -7.84699e-05 0.000155612 0.00283053 5e-05 0 0 -0.0294251 0 0 -5.1365e-09 
231 1 7.08161e-05 0.00020652 0.00243561 5e-05 0 0 -0.0294251 0 0 -5.1365e-09 
232 1 0.000112818 0.000125391 0.00289781 5e-05 0 0 -0.0294251 0 0 -5.1365e-09 
233 1 0.000278154 -6.51338e-05 0.00275159 5e-05 0 0 -0.0294251 0 0 -5.1365e-09 
234 1 0.000382777 0.000336777 0.00265851 5e-05 0 0 -0.0294251 0 0 -5.1365e-09 
235 1 -0.000202941 0.000177049 0.00211285 5e-05 0 0 -0.0294251 0 0 -5.1365e-09 
236 1 0.00011785 -0.000298754 0.00229382 5e-05 0 0 -0.0294251 0 0 -5.1365e-09 
237 1 -0.000422166 -0.000343901 0.00251508 5e-05 0 0 -0.0294251 0 0 -5.1365e-09 
238 1 -0.000246483 0.000366341 0.00255381 5e-05 0 0 -0.0294251 0 0 -5.1365e-09 
239 1 -0.000406024 -5.13099e-05 0.00209103 5e-05 0 0 -0.0294251 0 0 -5.1365e-09 
240 1 0.000150916 0.000443204 0.00238522 5e-05 0 0 -0.0294251 0 0 -5.1365e-09 
241 1 -6.07437e-05 8.05708e-05 0.00260882 5e-05 0 0 -0.0294251 0 0 -5.1365e-09 
242 1 -0.000353441 -0.000289726 0.00203362 5e-05 0 0 -0.0294251 0 0 -5.1365e-09 
243 1 -0.000449149 0.000154198 0.00205446 5e-05 0 0 -0.0294251 0 0 -5.1365e-09 
244 1 0.000432576 0.000310635 0.00229143 5e-05 0 0 -0.0294251 0 0 -5.1365e-09 
245 1 -0.0002337 0.000201837 0.00272435 5e-05 0 0 -0.0294251 0 0 -5.1365e-09 
246 1 -8.85427e-05 -0.00013792 0.00244224 5e-05 0 0 -0.0294251 0 0 -5.1365e-09 
247 1 -2.27964e-05 -0.00013833 0.00254219 5e-05 0 0 -0.0294251 0 0 -5.1365e-09 
248 1 7.94488e-05 0.000295541 0.00261649 5e-05 0 0 -0.0294251 0 0 -5.1365e-09 
249 1 0.00022227 -0.000303897 0.00285543 5e-05 0 0 -0.0294251 0 0 -5.1365e-09 
250 1 0.000169259 -0.000260153 0.00206573 5e-05 0 0 -0.0294251 0 0 -5.1365e-09 
251 1 0.000175992 -9.63554e-05 0.00201121 5e-05 0 0 -0.0294251 0 0 -5.1365e-09 
252 1 -0.000360369 0.000275219 0.00205499 5e-05 0 0 -0.0294251 0 0 -5.1365e-09 
253 1 0.000359891 -0.000305207 0.00284998 5e-05 0 0 -0.0294251 0 0 -5.1365e-09 
254 1 0.000127364 -0.000391778 0.0028359 5e-05 0 0 -0.0294251 0 0 -5.1365e-09 
255 1 0.000285271 -0.000443682 0.00249914 5e-05 0 0 -0.0294251 0 0 -5.1365e-09 
256 1 0.000213009 4.44805e-05 0.00203952 5e-05 0 0 -0.0294251 0 0 -5.1365e-09 
257 1 -5.82676e-05 -0.000304268 0.00262125 5e-05 0 0 -0.0294251 0 0 -5.1365e-09 
258 1 0.000440036 -0.000317183 0.00255879 5e-05 0 0 -0.0294251 0 0 -5.1365e-09 
259 1 3.31472e-05 0.000105245 0.00231189 5e-05 0 0 -0.0294251 0 0 -5.1365e-09 
260 1 0.000234984 0.000381098 0.0025765 5e-05 0 0 -0.0294251 0 0 -5.1365e-09 
261 1 0.000215863 1.69465e-05 0.0022765 5e-05 0 0 -0.0294251 0 0 -5.1365e-09 
262 1 -0.000153759 -0.000219659 0.00265345 5e-05 0 0 -0.0294251 0 0 -5.1365e-09 
263 1 -0.000264718 -0.000118748 0.00266205 5e-05 0 0 -0.0294251 0 0 -5.1365e-09 
264 1 0.00043392 -0.000111895 0.00284497 5e-05 0 0 -0.0294251 0 0 -5.1365e-09 
265 1 0.000372074 0.000447249 0.00236346 5e-05 0 0 -0.0294251 0 0 -5.1365e-09 
266 1 0.000421671 2.17076e-05 0.00229502 5e-05 0 0 -0.0294251 0 0 -5.1365e-09 
267 1 -0.000376436 0.000243127 0.00269212 5e-05 0 0 -0.0294251 0 0 -5.1365e-09 
268 1 -4.45834e-05 -0.000313118 0.002877 5e-05 0 0 -0.0294251 0 0 -5.1365e-09 
269 1 -0.000313218 -0.0002469 0.00279949 5e-05 0 0 -0.0294251 0 0 -5.1365e-09 
270 1 -0.000250144 -0.000165685 0.00278507 5e-05 0 0 -0.0294251 0 0 -5.1365e-09 
271 1 -0.000176601 -0.000138696 0.00238502 5e-05 0 0 -0.0294251 0 0 -5.1365e-09 
272 1 0.000166189 0.000135007 0.00251052 5e-05 0 0 -0.0294251 0 0 -5.1365e-09 
273 1 5.18991e-05 0.000267782 0.00206857 5e-05 0 0 -0.0294251 0 0 -5.1365e-09 
274 1 0.000369058 -0.000245491 0.00248516 5e-05 0 0 -0.0294251 0 0 -5.1365e-09 
275 1 -0.000419696 0.000169001 0.00285477 5e-05 0 0 -0.0294251 0 0 -5.1365e-09 
276 1 -0.000146044 0.000445436 0.00289683 5e-05 0 0 -0.0294251 0 0 -5.1365e-09 
277 1 0.000377428 0.000426155 0.00284459 5e-05 0 0 -0.0294251 0 0 -5.1365e-09 
278 1 0.000274325 -0.000419756 0.00261647 5e-05 0 0 -0.0294251 0 0 -5.1365e-09 
279 1 3.47365e-05 -0.00018302 0.00243895 5e-05 0 0 -0.0294251 0 0 -5.1365e-09 
280 1 1.86928e-05 0.000170689 0.00223135 5e-05 0 0 -0.0294251 0 0 -5.1365e-09 
281 1 -0.000311902 -0.000139959 0.00216968 5e-05 0 0 -0.0294251 0 0 -5.1365e-09 
282 1 0.00038985 0.000202937 0.00222028 5e-05 0 0 -0.0294251 0 0 -5.1365e-09 
283 1 -0.000329053 -0.000387518 0.00244488 5e-05 0 0 -0.0294251 0 0 -5.1365e-09 
284 1 -0.000237838 -0.000347358 0.00240773 5e-05 0 0 -0.0294251 0 0 -5.1365e-09 
285 1 -0.000340987 2.36555e-05 0.00203468 5e-05 0 0 -0.0294251 0 0 -5.1365e-09 
286 1 -0.000217491 -0.000367454 0.00265699 5e-05 0 0 -0.0294251 0 0 -5.1365e-09 
287 1 0.000209858 7.54881e-05 0.00218477 5e-05 0 0 -0.0294251 0 0 -5.1365e-09 
288 1 -0.000290679 -0.000446934 0.00283146 5e-05 0 0 -0.0294251 0 0 -5.1365e-09 
289 1 6.30867e-06 2.98233e-05 0.00269556 5e-05 0 0 -0.0294251 0 0 -5.1365e-09 
290 1 0.000403241 0.000267481 0.00201685 5e-05 0 0 -0.0294251 0 0 -5.1365e-09 
291 1 0.000139677 -0.000441444 0.00210643 5e-05 0 0 -0.0294251 0 0 -5.1365e-09 
292 1 -0.000229348 0.000353556 0.00267409 5e-05 0 0 -0.0294251 0 0 -5.1365e-09 
293 1 9.17971e-05 -0.000166787 0.00227188 5e-05 0 0 -0.0294251 0 0 -5.1365e-09 
294 1 0.000437071 -0.0001432 0.00270129 5e-05 0 0 -0.0294251 0 0 -5.1365e-09 
295 1 -0.000370515 -0.000242576 0.00247358 5e-05 0 0 -0.0294251 0 0 -5.1365e-09 
296 1 0.000226664 -0.000449824 0.00226935 5e-05 0 0 -0.0294251 0 0 -5.1365e-09 
297 1 -0.000440811 0.000282866 0.00258522 5e-05 0 0 -0.0294251 0 0 -5.1365e-09 
298 1 -3.3703e-05 -0.000446314 0.00225127 5e-05 0 0 -0.0294251 0 0 -5.1365e-09 
299 1 0.000235603 -0.000213501 0.00214351 5e-05 0 0 -0.0294251 0 0 -5.1365e-09 
300 1 0.000186959 0.000224784 0.00239496 5e-05 0 0 -0.0294251 0 0 -5.1365e-09 
301 1 1.60058e-05 1.01986e-05 0.00286397 5e-05 0 0 -0.0294251 0 0 -5.1365e-09 
302 1 7.27889e-06 0.000336314 0.00288637 5e-05 0 0 -0.0294251 0 0 -5.1365e-09 
303 1 0.00015792 0.000165189 0.00278005 5e-05 0 0 -0.0294251 0 0 -5.1365e-09 
304 1 0.000228655 -2.96592e-06 0.00260768 5e-05 0 0 -0.0294251 0 0 -5.1365e-09 
305 1 -0.000187616 -0.000257358 0.00203758 5e-05 0 0 -0.0294251 0 0 -5.1365e-09 
306 1 -0.000129544 -0.000248105 0.0025561 5e-05 0 0 -0.0294251 0 0 -5.1365e-09 
307 1 0.000342712 -3.97223e-05 0.002844 5e-05 0 0 -0.0294251 0 0 -5.1365e-09 
308 1 -0.000251245 0.000320616 0.00204417 5e-05 0 0 -0.0294251 0 0 -5.1365e-09 
309 1 -0.0001243 -0.000104787 0.00229593 5e-05 0 0 -0.0294251 0 0 -5.1365e-09 
310 1 -0.000152308 0.000152446 0.00261104 5e-05 0 0 -0.0294251 0 0 -5.1365e-09 
311 1 -0.000318188 0.000222041 0.00230358 5e-05 0 0 -0.0294251 0 0 -5.1365e-09 
312 1 -0.000310705 -2.302e-05 0.00255801 5e-05 0 0 -0.0294251 0 0 -5.1365e-09 
313 1 -0.000130496 -0.000246088 0.00245336 5e-05 0 0 -0.0294251 0 0 -5.1365e-09 
314 1 0.000184738 -0.00010411 0.00268296 5e-05 0 0 -0.0294251 0 0 -5.1365e-09 
315 1 -0.000237653 -0.000241839 0.00286514 5e-05 0 0 -0.0294251 0 0 -5.1365e-09 
316 1 0.000268672 -0.000425422 0.00238709 5e-05 0 0 -0.0294251 0 0 -5.1365e-09 
317 1 -0.000102185 -0.000418834 0.00210923 5e-05 0 0 -0.0294251 0 0 -5.1365e-09 
318 1 0.000345501 -0.00017061 0.00201514 5e-05 0 0 -0.0294251 0 0 -5.1365e-09 
319 1 8.92362e-05 -0.000206457 0.00254047 5e-05 0 0 -0.0294251 0 0 -5.1365e-09 
320 1 -0.000391598 0.000418094 0.00235467 5e-05 0 0 -0.0294251 0 0 -5.1365e-09 
321 1 -0.000231806 4.05007e-05 0.00215182 5e-05 0 0 -0.0294251 0 0 -5.1365e-09 
322 1 0.00032068 -0.000332026 0.00209617 5e-05 0 0 -0.0294251 0 0 -5.1365e-09 
323 1 0.000248264 -0.000429328 0.00273363 5e-05 0 0 -0.0294251 0 0 -5.1365e-09 
324 1 -0.000247746 0.00013042 0.00241868 5e-05 0 0 -0.0294251 0 0 -5.1365e-09 
325 1 0.000328902 -0.000148977 0.00259588 5e-05 0 0 -0.0294251 0 0 -5.1365e-09 
326 1 -0.000359183 0.000217927 0.00214908 5e-05 0 0 -0.0294251 0 0 -5.1365e-09 
327 1 0.000406566 0.000152642 0.00290377 5e-05 0 0 -0.0294251 0 0 -5.1365e-09 
328 1 0.000198705 -0.000358863 0.00204197 5e-05 0 0 -0.0294251 0 0 -5.1365e-09 
329 1 -0.000249121 2.95212e-05 0.00261787 5e-05 0 0 -0.0294251 0 0 -5.1365e-09 
330 1 0.000263574 -0.000114062 0.00242221 5e-05 0 0 -0.0294251 0 0 -5.1365e-09 
331 1 0.000448715 -0.00044007 0.00220033 5e-05 0 0 -0.0294251 0 0 -5.1365e-09 
332 1 9.32843e-05 -0.000170201 0.00289266 5e-05 0 0 -0.0294251 0 0 -5.1365e-09 
333 1 -0.000417267 -3.78117e-06 0.00290577 5e-05 0 0 -0.0294251 0 0 -5.1365e-09 
334 1 -0.000301545 -6.88825e-05 0.00274843 5e-05 0 0 -0.0294251 0 0 -5.1365e-09 
335 1 -0.000307036 -0.000355997 0.00222207 5e-05 0 0 -0.0294251 0 0 -5.1365e-09 
336 1 -0.000338451 -0.000341157 0.00263012 5e-05 0 0 -0.0294251 0 0 -5.1365e-09 
337 1 -0.000436021 -0.00019868 0.00224034 5e-05 0 0 -0.0294251 0 0 -5.1365e-09 
338 1 -0.000429639 5.86271e-05 0.00280095 5e-05 0 0 -0.0294251 0 0 -5.1365e-09 
339 1 -0.000446589 0.000186182 0.00261575 5e-05 0 0 -0.0294251 0 0 -5.1365e-09 
340 1 0.000346515 -0.0001162 0.00248313 5e-05 0 0 -0.0294251 0 0 -5.1365e-09 
341 1 7.03622e-05 -0.000423267 0.00261363 5e-05 0 0 -0.0294251 0 0 -5.1365e-09 
342 1 -0.000359323 -0.00013497 0.00202307 5e-05 0 0 -0.0294251 0 0 -5.1365e-09 
343 1 -0.000217774 -0.000121449 0.00226372 5e-05 0 0 -0.0294251 0 0 -5.1365e-09 
344 1 0.000283013 -0.000396892 0.00288624 5e-05 0 0 -0.0294251 0 0 -5.1365e-09 
345 1 0.000346291 0.000119966 0.00272467 5e-05 0 0 -0.0294251 0 0 -5.1365e-09 
346 1 0.00032862 0.000124639 0.00226793 5e-05 0 0 -0.0294251 0 0 -5.1365e-09 
347 1 -0.000150882 0.000121789 0.00237099 5e-05 0 0 -0.0294251 0 0 -5.1365e-09 
348 1 -0.000195191 0.000430138 0.00279025 5e-05 0 0 -0.0294251 0 0 -5.1365e-09 
349 1 0.000113646 4.74999e-05 0.00278608 5e-05 0 0 -0.0294251 0 0 -5.1365e-09 
350 1 0.0003862 -0.000129728 0.00211361 5e-05 0 0 -0.0294251 0 0 -5.1365e-09 
351 1 -0.000448672 0.000169691 0.00245325 5e-05 0 0 -0.0294251 0 0 -5.1365e-09 
352 1 -0.000177117 0.000198569 0.00281114 5e-05 0 0 -0.0294251 0 0 -5.1365e-09 
353 1 -0.000157363 0.000204948 0.00201162 5e-05 0 0 -0.0294251 0 0 -5.1365e-09 
354 1 2.06014e-05 0.000247878 0.00253598 5e-05 0 0 -0.0294251 0 0 -5.1365e-09 
355 1 -0.000418643 -0.000128167 0.00236005 5e-05 0 0 -0.0294251 0 0 -5.1365e-09 
356 1 0.000168297 -0.000425941 0.00266128 5e-05 0 0 -0.0294251 0 0 -5.1365e-09 
357 1 -0.000435311 -0.00027505 0.00269133 5e-05 0 0 -0.0294251 0 0 -5.1365e-09 
358 1 0.000161859 0.00036721 0.00214698 5e-05 0 0 -0.0294251 0 0 -5.1365e-09 
359 1 -6.28892e-05 2.12866e-05 0.00221989 5e-05 0 0 -0.0294251 0 0 -5.1365e-09 
360 1 -0.000115371 -3.54011e-05 0.00246906 5e-05 0 0 -0.0294251 0 0 -5.1365e-09 
361 1 0.000127549 -0.000290947 0.00250218 5e-05 0 0 -0.0294251 0 0 -5.1365e-09 
362 1 -2.48183e-05 -0.000121412 0.00289231 5e-05 0 0 -0.0294251 0 0 -5.1365e-09 
363 1 -0.000354198 -1.25613e-05 0.00233832 5e-05 0 0 -0.0294251 0 0 -5.1365e-09 
364 1 -7.04994e-05 0.000117078 0.00218962 5e-05 0 0 -0.0294251 0 0 -5.1365e-09 
365 1 2.20272e-05 0.000210592 0.00288342 5e-05 0 0 -0.0294251 0 0 -5.1365e-09 
366 1 0.000227393 -0.000209296 0.00281692 5e-05 0 0 -0.0294251 0 0 -5.1365e-09 
367 1 -0.000398577 0.000116244 0.00217138 5e-05 0 0 -0.0294251 0 0 -5.1365e-09 
368 1 -0.000245926 -0.000273932 0.00248849 5e-05 0 0 -0.0294251 0 0 -5.1365e-09 
369 1 -0.000152182 0.000274722 0.00271306 5e-05 0 0 -0.0294251 0 0 -5.1365e-09 
370 1 -0.000313624 -8.50576e-05 0.00289324 5e-05 0 0 -0.0294251 0 0 -5.1365e-09 
371 1 0.000274063 0.000179563 0.00236512 5e-05 0 0 -0.0294251 0 0 -5.1365e-09 
372 1 -0.00013536 -8.81392e-07 0.00264231 5e-05 0 0 -0.0294251 0 0 -5.1365e-09 
373 1 3.27604e-05 -0.000396088 0.00239743 5e-05 0 0 -0.0294251 0 0 -5.1365e-09 
374 1 -0.000357573 0.000276816 0.00289781 5e-05 0 0 -0.0294251 0 0 -5.1365e-09 
375 1 -0.000116998 -0.000393469 0.00242531 5e-05 0 0 -0.0294251 0 0 -5.1365e-09 