ITEM: TIMESTEP
25000
ITEM: NUMBER OF ATOMS
519
ITEM: BOX BOUNDS ff ff ff
-0.001 0.001
-0.001 0.001
0 0.004
ITEM: ATOMS id type x y z radius vx vy vz fx fy fz 
379 1 -0.000153171 -0.0001718 1.97722e-05 5e-05 -0.00268286 0.00609322 -0.104248 -2.08234e-06 -4.34166e-06 -1.7923e-06 
153 1 -0.000103479 -0.000117958 8.74358e-05 5e-05 0.0664459 0.0353363 -0.12615 2.08234e-06 4.34166e-06 1.78203e-06 
558 1 5.75809e-05 -0.000223053 1.99609e-05 5e-05 -0.0270521 0.0929237 -0.114023 0 0 -5.1365e-09 
528 1 -4.89885e-05 -0.000220182 0.000123244 5e-05 -0.0260355 -0.0175375 -0.162355 0 0 -5.1365e-09 
25 1 3.05513e-06 -0.000108293 3.72997e-05 5e-05 0.02809 0.0588457 -0.129697 0 0 -5.1365e-09 
92 1 4.15665e-05 -0.000175315 0.000113328 5e-05 -0.0348428 0.0787358 -0.112724 0 0 -5.1365e-09 
541 1 0.0001526 -7.78132e-05 4.33718e-05 5e-05 -0.0396782 0.0603293 -0.106687 0 0 -5.1365e-09 
381 1 0.000164215 -0.000199604 0.000113881 5e-05 -0.00558797 0.0463051 -0.139115 0 0 -5.1365e-09 
383 1 -0.000222784 4.13976e-05 1.2414e-05 5e-05 0.0489605 -0.0453953 -0.0807952 0 0 -5.1365e-09 
463 1 -0.000170413 -4.7578e-05 8.87831e-06 5e-05 -0.00591755 0.0194211 -0.173838 0 0 -5.1365e-09 
126 1 -0.000150002 1.11894e-05 0.000130501 5e-05 0.019693 -0.0528645 -0.159348 0 0 -5.1365e-09 
30 1 -5.77443e-05 3.89179e-05 9.19422e-05 5e-05 -0.00519057 0.00952019 -0.149651 0 0 -5.1365e-09 
78 1 3.08023e-05 1.65347e-05 3.28546e-05 5e-05 -0.00427948 -0.0323697 -0.159247 0 0 -5.1365e-09 
350 1 0.000220303 6.82354e-05 7.35658e-05 5e-05 -0.0243539 -0.0387448 -0.116419 0 0 -5.1365e-09 
331 1 0.000241779 -5.25964e-05 8.69016e-05 5e-05 -0.0688028 0.0426427 -0.109703 0 0 -5.1365e-09 
136 1 0.000275768 2.63943e-05 0.000145653 5e-05 -0.0315165 0.040571 -0.150484 0 0 -5.1365e-09 
388 1 -0.000128075 9.92869e-05 1.40783e-05 5e-05 0.0446117 0.024471 -0.12791 0 0 -5.1365e-09 
10 1 -0.000189138 0.000167241 7.35723e-05 5e-05 0.0327907 0.00512328 -0.107395 0 0 -5.1365e-09 
475 1 -2.32715e-05 0.000107616 2.56749e-05 5e-05 0.0736863 -0.0132968 -0.113578 0 0 -5.1365e-09 
422 1 8.71847e-07 0.000217091 1.1744e-05 5e-05 -0.0100678 0.0386129 -0.124436 0 0 -5.1365e-09 
60 1 -1.31365e-05 0.000179816 0.000120412 5e-05 -0.032712 -0.0563983 -0.101958 0 0 -5.1365e-09 
91 1 0.000180667 0.000178147 4.15207e-05 5e-05 0.00653986 0.0288964 -0.115744 0 0 -5.1365e-09 
90 1 8.03875e-05 0.000199497 7.79272e-05 5e-05 0.00191031 -0.0185371 -0.0811136 0 0 -5.1365e-09 
17 1 0.000105942 9.99604e-05 4.51562e-05 5e-05 -0.00239758 0.00051702 -0.172736 0 0 -5.1365e-09 
50 1 0.000167196 0.000202218 0.000141413 5e-05 -0.0217967 -0.00207052 -0.125084 0 0 -5.1365e-09 
108 1 -9.32279e-05 0.000236102 6.85413e-05 5e-05 0.0361348 -0.0771191 -0.0944273 0 0 -5.1365e-09 
402 1 3.96173e-05 -0.000263605 0.000216821 5e-05 0.0234616 0.0522262 -0.128474 0 0 -5.1365e-09 
489 1 -4.15427e-05 -0.000295961 0.000273768 5e-05 -7.28826e-06 0.00553261 -0.0978601 0 0 -5.1365e-09 
239 1 -0.000160252 -0.000193267 0.000164202 5e-05 0.0607829 -0.0297684 -0.0951504 0 0 -5.1365e-09 
363 1 -0.000158799 -8.43541e-05 0.00018314 5e-05 -0.0151007 0.025905 -0.116422 0 0 -5.1365e-09 
401 1 -2.79638e-05 -0.000194675 0.000286436 5e-05 0.0205038 0.00911268 -0.121738 0 0 -5.1365e-09 
449 1 2.22018e-05 -0.000100799 0.000195179 5e-05 0.0464223 -0.00917402 -0.170592 0 0 -5.1365e-09 
141 1 0.000183728 -7.8029e-05 0.000222195 5e-05 -0.0484468 -0.0101974 -0.135689 0 0 -5.1365e-09 
448 1 0.000107587 -0.000159035 0.000192693 5e-05 -0.0467766 0.0689754 -0.109072 0 0 -5.1365e-09 
61 1 -0.000265171 -7.62066e-05 0.000182429 5e-05 0.0166248 0.0215672 -0.115083 0 0 -5.1365e-09 
123 1 -0.000268348 4.47999e-05 0.000154281 5e-05 0.00466021 -0.0449587 -0.114122 0 0 -5.1365e-09 
421 1 -0.000240052 2.47975e-05 0.000290532 5e-05 0.0107276 -0.0545954 -0.0977601 0 0 -5.1365e-09 
47 1 -0.000124213 6.40541e-05 0.000290988 5e-05 0.0608337 -0.00279706 -0.118873 0 0 -5.1365e-09 
142 1 -7.80865e-05 -1.47453e-05 0.00023268 5e-05 0.0259168 -0.000377604 -0.167136 0 0 -5.1365e-09 
393 1 -0.000189456 6.9174e-05 0.000214915 5e-05 0.0452846 -0.0170285 -0.164219 0 0 -5.1365e-09 
564 1 7.0254e-05 7.33762e-06 0.000181229 5e-05 0.0364393 0.019385 -0.08887 0 0 -5.1365e-09 
549 1 0.000168392 4.36476e-05 0.000156226 5e-05 -0.0147674 -0.0148726 -0.155721 0 0 -5.1365e-09 
170 1 0.00013001 6.37381e-06 0.000262313 5e-05 -0.0469322 0.0205746 -0.137953 0 0 -5.1365e-09 
274 1 0.000248206 4.19468e-06 0.000239246 5e-05 -0.0264826 0.028358 -0.13173 0 0 -5.1365e-09 
87 1 -0.000114641 0.000137553 0.00021233 5e-05 0.0147847 0.0235964 -0.201641 0 0 -5.1365e-09 
213 1 2.63133e-05 9.38597e-05 0.000233054 5e-05 -0.0317923 -0.0318104 -0.124107 0 0 -5.1365e-09 
358 1 8.85273e-05 0.000157645 0.000186737 5e-05 0.00382037 -0.00340823 -0.120462 0 0 -5.1365e-09 
497 1 0.00017131 0.000183763 0.000274123 5e-05 -0.0623818 0.0066925 -0.103952 0 0 -5.1365e-09 
261 1 0.000217782 8.99134e-05 0.000282991 5e-05 -0.0291267 0.00980208 -0.0984052 0 0 -5.1365e-09 
457 1 0.00024615 0.000124124 0.000190014 5e-05 -0.0829874 0.0168611 -0.0342632 0 0 -5.1365e-09 
384 1 3.06173e-05 0.000262297 0.000214999 5e-05 -0.0324941 -0.0148922 -0.155373 0 0 -5.1365e-09 
160 1 -0.000144509 -0.000253694 0.000339187 5e-05 0.00473303 0.0362497 -0.089449 0 0 -5.1365e-09 
342 1 -0.000184342 -0.000255811 0.000460014 5e-05 0.0667567 -0.0436548 -0.11469 0 0 -5.1365e-09 
473 1 2.20925e-05 -0.000318617 0.000437065 5e-05 0.0457895 0.0279321 -0.074454 0 0 -5.1365e-09 
75 1 -0.000133664 -0.000134231 0.00031173 5e-05 0.00778302 -0.0162351 -0.110548 0 0 -5.1365e-09 
6 1 -0.000217864 -0.000144343 0.00040803 5e-05 -0.000203918 -0.00992935 -0.177031 0 0 -5.1365e-09 
196 1 7.55795e-05 -0.000170356 0.000318477 5e-05 0.0648945 -0.00101071 -0.137201 0 0 -5.1365e-09 
121 1 0.000212784 -0.000148012 0.000322637 5e-05 0.0340195 0.00658924 -0.151645 0 0 -5.1365e-09 
291 1 0.000196379 -0.000211573 0.00040227 5e-05 -0.0160062 0.0076498 -0.118279 0 0 -5.1365e-09 
281 1 9.70599e-05 -0.000229881 0.000423423 5e-05 -0.0263246 -0.00710986 -0.138083 0 0 -5.1365e-09 
95 1 -0.000147749 4.20517e-05 0.000411859 5e-05 0.0508545 -0.0012211 -0.147693 0 0 -5.1365e-09 
51 1 -5.66993e-05 -4.69156e-05 0.000457349 5e-05 0.0210615 0.05478 -0.135082 0 0 -5.1365e-09 
324 1 -4.07568e-05 9.4217e-06 0.000334332 5e-05 0.0422291 -0.0185238 -0.166575 0 0 -5.1365e-09 
507 1 7.54769e-05 8.1666e-06 0.000378477 5e-05 -0.0637415 0.040159 -0.111319 0 0 -5.1365e-09 
538 1 0.000159234 -5.95777e-05 0.000379039 5e-05 -0.0371921 -0.0244954 -0.126293 0 0 -5.1365e-09 
340 1 0.000226857 1.45772e-05 0.000353705 5e-05 0.0202431 0.0236123 -0.153795 0 0 -5.1365e-09 
320 1 -0.000270198 0.000104984 0.00037303 5e-05 0.0413444 -0.0477728 -0.069991 0 0 -5.1365e-09 
224 1 -0.000235744 0.000198272 0.000444456 5e-05 0.0224186 0.0261702 -0.15741 0 0 -5.1365e-09 
537 1 -0.000197241 0.000188578 0.000347514 5e-05 0.0175501 0.00850292 -0.0610113 0 0 -5.1365e-09 
389 1 -5.91498e-05 0.000145436 0.000312434 5e-05 0.0164021 0.00314494 -0.146522 0 0 -5.1365e-09 
504 1 5.14318e-05 0.000143658 0.00044403 5e-05 -0.0229917 0.00205673 -0.141136 0 0 -5.1365e-09 
441 1 9.12387e-05 0.000219887 0.000324263 5e-05 0.0534175 -0.0621319 -0.0863662 0 0 -5.1365e-09 
454 1 0.000135992 0.000109292 0.000344996 5e-05 0.00720927 0.0479479 -0.160412 0 0 -5.1365e-09 
287 1 0.000230387 0.000108085 0.000410571 5e-05 0.000428495 -0.0218756 -0.112272 0 0 -5.1365e-09 
346 1 0.000189437 0.000217012 0.000409816 5e-05 -0.0631447 -0.052203 -0.0618824 0 0 -5.1365e-09 
560 1 -9.16458e-05 0.000262586 0.000346211 5e-05 0.0521541 -0.0890898 -0.0819506 0 0 -5.1365e-09 
256 1 4.54845e-06 0.000299141 0.000387479 5e-05 0.0248779 0.0305085 -0.0976888 0 0 -5.1365e-09 
74 1 0.000109739 0.000297249 0.000421771 5e-05 -0.0538285 -0.0149055 -0.0625407 0 0 -5.1365e-09 
227 1 -0.000223133 -0.000290351 0.000603042 5e-05 0.0382049 0.0402273 -0.102742 0 0 -5.1365e-09 
168 1 -6.9341e-05 -0.000310277 0.000481825 5e-05 0.0371284 0.0295259 -0.0797519 0 0 -5.1365e-09 
42 1 0.000166253 -0.000300785 0.000578238 5e-05 0.0406023 0.0116445 -0.0864535 0 0 -5.1365e-09 
387 1 -0.000263236 -0.000167432 0.000512758 5e-05 0.0406482 -1.70381e-05 -0.117474 0 0 -5.1365e-09 
429 1 -0.000317198 -0.000186239 0.000612934 5e-05 0.0246813 -0.0174001 -0.095252 0 0 -5.1365e-09 
45 1 -0.000219482 -8.81327e-05 0.000608234 5e-05 0.0436404 -0.0097187 -0.126174 0 0 -5.1365e-09 
165 1 -0.000165576 -0.000218717 0.000561431 5e-05 0.0344411 -0.0164759 -0.164958 0 0 -5.1365e-09 
35 1 0.000206164 -0.000123916 0.000469026 5e-05 -0.0496985 0.0204846 -0.121455 0 0 -5.1365e-09 
496 1 0.000231578 -0.000114608 0.000569281 5e-05 -0.0379221 0.0149327 -0.115615 0 0 -5.1365e-09 
26 1 -0.000356113 -4.49641e-05 0.00050984 5e-05 0.0398146 -0.00759506 -0.130143 0 0 -5.1365e-09 
228 1 -0.000122914 -5.85739e-05 0.000572225 5e-05 0.017967 -0.0110311 -0.0822023 0 0 -5.1365e-09 
214 1 -0.000194388 9.23628e-06 0.00050593 5e-05 0.0155745 -0.0338266 -0.143163 0 0 -5.1365e-09 
305 1 2.69224e-05 1.20693e-05 0.000474767 5e-05 0.0432008 0.0318876 -0.0897103 0 0 -5.1365e-09 
3 1 1.16006e-05 -7.64581e-05 0.000606076 5e-05 0.0220651 0.0463143 -0.132944 0 0 -5.1365e-09 
330 1 0.000184794 4.1855e-05 0.000475767 5e-05 -0.0208103 -0.0207243 -0.139016 0 0 -5.1365e-09 
447 1 0.00035506 3.89215e-05 0.000490194 5e-05 -0.04483 0.0186236 -0.109589 0 0 -5.1365e-09 
226 1 -0.000346547 8.96378e-05 0.000548583 5e-05 0.00683032 0.00232033 -0.116349 0 0 -5.1365e-09 
109 1 -0.000232673 0.00012896 0.00052203 5e-05 0.0202683 0.0190196 -0.142794 0 0 -5.1365e-09 
347 1 -0.000118049 0.00013902 0.000502859 5e-05 0.0122269 -0.0203046 -0.173562 0 0 -5.1365e-09 
181 1 -4.81715e-05 0.000164597 0.000591738 5e-05 0.0166787 -0.0200233 -0.127636 0 0 -5.1365e-09 
225 1 6.99061e-05 0.000229241 0.000550497 5e-05 -0.0325784 0.0113957 -0.149423 0 0 -5.1365e-09 
479 1 0.000127139 0.000135161 0.000515092 5e-05 -0.0365425 0.0125555 -0.136495 0 0 -5.1365e-09 
34 1 0.000157467 0.00011243 0.000615203 5e-05 -0.0381068 0.0322974 -0.111165 0 0 -5.1365e-09 
84 1 0.000251034 0.000155812 0.000535063 5e-05 -0.0241929 -0.0207028 -0.0951289 0 0 -5.1365e-09 
476 1 -6.0329e-06 0.000330414 0.000516442 5e-05 -0.0433684 -0.0288859 -0.111149 0 0 -5.1365e-09 
140 1 -6.72397e-05 0.000242059 0.000507166 5e-05 -0.0343033 -0.0154769 -0.137103 0 0 -5.1365e-09 
244 1 0.00022722 0.000271078 0.000601745 5e-05 -0.0346122 -0.00849047 -0.0828352 0 0 -5.1365e-09 
191 1 -0.00021799 -0.000238006 0.000764612 5e-05 0.0320198 0.0092939 -0.138729 0 0 -5.1365e-09 
204 1 -9.52396e-05 -0.000314564 0.000672734 5e-05 0.0343415 -0.036444 -0.145596 0 0 -5.1365e-09 
107 1 0.000138727 -0.000350417 0.000743987 5e-05 -0.0104231 0.05214 -0.0860775 0 0 -5.1365e-09 
103 1 -0.000252087 -0.000134601 0.000692819 5e-05 0.00360586 -0.0105174 -0.125736 0 0 -5.1365e-09 
337 1 -0.000324736 -0.000209701 0.000731872 5e-05 0.0308432 0.0074752 -0.119962 0 0 -5.1365e-09 
312 1 -0.000153019 -0.000146151 0.000716303 5e-05 0.0326864 -0.0319185 -0.130859 0 0 -5.1365e-09 
455 1 -7.19593e-05 -0.000145216 0.000625753 5e-05 0.0444869 -0.0183679 -0.108005 0 0 -5.1365e-09 
317 1 0.000101345 -0.000171509 0.000667517 5e-05 0.00802177 0.0463019 -0.127399 0 0 -5.1365e-09 
159 1 0.000317776 -0.000204311 0.000645744 5e-05 -0.00532523 0.030085 -0.0827657 0 0 -5.1365e-09 
438 1 -0.00032794 -2.47562e-06 0.000629409 5e-05 0.0395848 0.00263528 -0.130553 0 0 -5.1365e-09 
506 1 -0.000283963 -3.78853e-06 0.000722548 5e-05 0.0298076 -0.00094984 -0.140715 0 0 -5.1365e-09 
431 1 -9.11431e-05 -4.49878e-05 0.000719702 5e-05 0.0153771 0.0305326 -0.153018 0 0 -5.1365e-09 
155 1 2.17107e-05 -2.75736e-05 0.00075235 5e-05 0.0424327 0.0232828 -0.113667 0 0 -5.1365e-09 
325 1 0.000165326 -7.46048e-05 0.000648635 5e-05 -0.0418382 -0.00464217 -0.138737 0 0 -5.1365e-09 
100 1 0.000195225 2.02234e-05 0.000663145 5e-05 -0.0738163 -0.0212857 -0.112348 0 0 -5.1365e-09 
266 1 0.000284742 6.03318e-05 0.000620638 5e-05 -0.0359868 -6.374e-05 -0.100723 0 0 -5.1365e-09 
195 1 0.000237587 6.01578e-05 0.000753837 5e-05 -0.0462301 0.000288191 -0.143154 0 0 -5.1365e-09 
208 1 0.000415036 7.80775e-06 0.00074849 5e-05 -0.0307313 0.00045237 -0.117597 0 0 -5.1365e-09 
135 1 0.000189314 0.000218238 0.000748194 5e-05 -0.0486646 -0.0564561 -0.113803 0 0 -5.1365e-09 
282 1 0.000296063 0.000228331 0.000707016 5e-05 -0.0275426 -0.00134365 -0.103742 0 0 -5.1365e-09 
502 1 -1.53274e-05 0.000368587 0.000692889 5e-05 -0.0333445 -0.0208796 -0.0679882 0 0 -5.1365e-09 
413 1 0.000170051 0.000322314 0.00071778 5e-05 -0.0526939 0.0125472 -0.0908704 0 0 -5.1365e-09 
547 1 8.54517e-05 0.000257041 0.000755635 5e-05 -0.0420169 0.0252196 -0.130791 0 0 -5.1365e-09 
113 1 -0.0001451 -0.000389239 0.000872629 5e-05 0.0250131 0.00185093 -0.066037 0 0 -5.1365e-09 
9 1 -3.1661e-05 -0.000408451 0.000788797 5e-05 0.0317342 0.00791824 -0.139442 0 0 -5.1365e-09 
514 1 -0.000313512 -0.000276924 0.000821029 5e-05 0.0297559 0.00242288 -0.106368 0 0 -5.1365e-09 
400 1 -0.000222062 -0.000316286 0.000846135 5e-05 0.0127925 0.0086285 -0.0938971 0 0 -5.1365e-09 
536 1 2.43263e-05 -0.000310271 0.000773551 5e-05 -0.00367604 0.0324781 -0.125296 0 0 -5.1365e-09 
355 1 -0.000365842 -0.000133943 0.000788406 5e-05 0.0456703 0.00515227 -0.102419 0 0 -5.1365e-09 
295 1 -0.000252896 -0.000230535 0.000887851 5e-05 0.0368296 0.00207411 -0.118864 0 0 -5.1365e-09 
397 1 -0.000231447 -0.000136223 0.000853034 5e-05 0.0307807 -0.030181 -0.144276 0 0 -5.1365e-09 
296 1 0.000231125 -0.000203321 0.00081232 5e-05 -0.0121306 0.0397209 -0.0960614 0 0 -5.1365e-09 
467 1 0.000282851 -0.000106763 0.000782122 5e-05 -0.0242381 -0.0112998 -0.141485 0 0 -5.1365e-09 
258 1 0.000375517 -0.000136391 0.000830815 5e-05 -0.023577 0.00886981 -0.0971436 0 0 -5.1365e-09 
111 1 -0.000419243 -4.41923e-05 0.000920985 5e-05 0.0386195 0.000335052 -0.0918171 0 0 -5.1365e-09 
351 1 -0.000398181 7.60621e-05 0.00082061 5e-05 0.0167496 -0.00701556 -0.112843 0 0 -5.1365e-09 
179 1 -0.000301806 9.72775e-06 0.000899539 5e-05 0.0429083 -0.00298047 -0.109291 0 0 -5.1365e-09 
329 1 -0.000162897 -5.2036e-05 0.000801537 5e-05 0.0130733 -0.00377484 -0.112974 0 0 -5.1365e-09 
82 1 -0.000189613 -5.93805e-05 0.000908521 5e-05 0.00969362 0.0363987 -0.0931286 0 0 -5.1365e-09 
174 1 -0.000207198 7.66197e-05 0.000861481 5e-05 0.0307201 -0.0561326 -0.0864287 0 0 -5.1365e-09 
304 1 0.000124548 2.2023e-05 0.000783714 5e-05 -0.0554302 -0.009601 -0.128263 0 0 -5.1365e-09 
512 1 0.000317561 9.93044e-06 0.000836233 5e-05 -0.0251282 0.00468922 -0.135643 0 0 -5.1365e-09 
297 1 -0.000312426 0.000194019 0.000808817 5e-05 0.0459394 0.00598592 -0.0884791 0 0 -5.1365e-09 
408 1 -0.000383308 0.000179233 0.000922225 5e-05 0.00855656 -0.0332929 -0.107439 0 0 -5.1365e-09 
371 1 0.000173058 0.000209874 0.000915066 5e-05 -0.0298536 0.00115212 -0.117599 0 0 -5.1365e-09 
11 1 0.000354107 0.000133237 0.000788879 5e-05 -0.043353 0.00312805 -0.0980564 0 0 -5.1365e-09 
205 1 0.000248184 0.000131689 0.000859623 5e-05 -0.0357427 -0.0110916 -0.131927 0 0 -5.1365e-09 
444 1 0.000313364 0.000217772 0.000858264 5e-05 -0.0238828 0.00633305 -0.12199 0 0 -5.1365e-09 
175 1 0.000404773 0.000170602 0.000919285 5e-05 -0.0296868 0.00742326 -0.089426 0 0 -5.1365e-09 
394 1 -0.000175872 0.000240755 0.00089456 5e-05 0.00989447 -0.0590557 -0.0960225 0 0 -5.1365e-09 
218 1 1.26398e-05 0.000432995 0.000823767 5e-05 -0.062209 0.00315476 -0.0921504 0 0 -5.1365e-09 
68 1 -0.000196467 -0.000388704 0.000977136 5e-05 0.0365535 0.0132784 -0.0865341 0 0 -5.1365e-09 
237 1 -0.00039327 -0.000262744 0.00104837 5e-05 0.0119852 0.0088917 -0.0935725 0 0 -5.1365e-09 
29 1 -0.000319037 -0.00030456 0.0009919 5e-05 0.0233237 0.0125674 -0.094751 0 0 -5.1365e-09 
336 1 -0.000266555 -0.000272039 0.00107401 5e-05 0.0469529 0.000441677 -0.10967 0 0 -5.1365e-09 
382 1 0.00013156 -0.000352707 0.001006 5e-05 0.00478109 0.0206207 -0.111582 0 0 -5.1365e-09 
298 1 0.000278545 -0.000357331 0.00106982 5e-05 -0.0031508 0.0432521 -0.0742968 0 0 -5.1365e-09 
83 1 -0.000407451 -0.000180766 0.000931051 5e-05 0.0303304 -0.0174091 -0.0936403 0 0 -5.1365e-09 
46 1 -0.000454094 -9.76282e-05 0.00105819 5e-05 0.0271699 -0.00137572 -0.0905219 0 0 -5.1365e-09 
532 1 -0.000309828 -0.000160548 0.000939552 5e-05 0.0439606 -0.0345306 -0.126216 0 0 -5.1365e-09 
343 1 -0.000138229 -0.000129277 0.0010091 5e-05 0.0343975 0.0083919 -0.0806864 0 0 -5.1365e-09 
316 1 0.000189575 -0.000132089 0.000978529 5e-05 -0.0466211 0.0211866 -0.0881577 0 0 -5.1365e-09 
215 1 0.000327756 -0.000162337 0.000961598 5e-05 -0.0139524 0.00423506 -0.098151 0 0 -5.1365e-09 
166 1 0.000431205 -0.000201353 0.00100888 5e-05 -0.0198679 -0.00124901 -0.0743281 0 0 -5.1365e-09 
27 1 0.000441596 -9.20418e-05 0.00100472 5e-05 -0.0169945 0.0282065 -0.108165 0 0 -5.1365e-09 
360 1 -0.000353772 -2.31307e-05 0.0010344 5e-05 0.00862799 0.0055678 -0.117385 0 0 -5.1365e-09 
233 1 0.000255469 -5.6762e-05 0.000957045 5e-05 -0.0311383 0.0211555 -0.133053 0 0 -5.1365e-09 
465 1 0.000383247 -1.21377e-05 0.00106141 5e-05 -0.0571962 -0.0108441 -0.0956757 0 0 -5.1365e-09 
194 1 0.000460454 6.70782e-06 0.000992002 5e-05 -0.00270978 0.00541563 -0.0788079 0 0 -5.1365e-09 
339 1 -0.000438199 7.83566e-05 0.00100686 5e-05 0.0244907 -0.00643847 -0.0841144 0 0 -5.1365e-09 
272 1 0.000225345 0.000130266 0.0010393 5e-05 -0.00653822 0.0048561 -0.108834 0 0 -5.1365e-09 
72 1 0.000284101 0.000229119 0.00101606 5e-05 -0.0169612 -0.00821993 -0.11711 0 0 -5.1365e-09 
21 1 0.000438512 0.000130635 0.00105234 5e-05 -0.0204884 -0.018357 -0.0728404 0 0 -5.1365e-09 
88 1 -0.000223436 0.000355157 0.00101143 5e-05 0.000313145 -0.042889 -0.0830077 0 0 -5.1365e-09 
494 1 -6.9965e-05 0.000315936 0.00103407 5e-05 -0.0117463 -0.039892 -0.0922107 0 0 -5.1365e-09 
290 1 0.000297206 0.000320676 0.000977016 5e-05 -0.02639 -0.0121668 -0.0904661 0 0 -5.1365e-09 
391 1 0.000273073 0.000373389 0.00107029 5e-05 -0.0335108 -0.0148828 -0.0792475 0 0 -5.1365e-09 
419 1 0.000403689 0.000243797 0.00103446 5e-05 -0.014335 -0.0156758 -0.0812706 0 0 -5.1365e-09 
548 1 -5.66824e-05 0.000441045 0.000966371 5e-05 -0.00349288 -0.0205735 -0.0846517 0 0 -5.1365e-09 
516 1 -0.000275321 -0.000436891 0.001198 5e-05 0.0283029 -0.00292784 -0.0726754 -6.23514e-09 -3.099e-07 8.39024e-08 
283 1 -0.00013474 -0.000468183 0.00117833 5e-05 0.00775486 0.00975003 -0.0806505 0 0 -5.1365e-09 
207 1 5.03732e-05 -0.000466183 0.00114819 5e-05 0.00118351 0.0297266 -0.0721669 0 0 -5.1365e-09 
553 1 0.000164999 -0.000442261 0.00110898 5e-05 0.00814765 0.0393323 -0.0763973 0 0 -5.1365e-09 
188 1 0.000226498 -0.000402524 0.00123058 5e-05 -0.0186542 0.0320422 -0.0574253 0 0 -5.1365e-09 
430 1 -0.00042963 -0.00024454 0.00114976 5e-05 0.0304107 0.000663983 -0.0794622 0 0 -5.1365e-09 
112 1 -0.000273851 -0.000338604 0.00121628 5e-05 0.0416302 -0.000923352 -0.0923009 6.23514e-09 3.099e-07 -9.41754e-08 
18 1 -0.000328554 -0.000242852 0.00119193 5e-05 0.00705205 0.00853672 -0.0877274 0 0 -5.1365e-09 
368 1 -0.000171946 -0.000298558 0.00110557 5e-05 0.0565361 0.00216474 -0.0872839 0 0 -5.1365e-09 
43 1 -0.000144588 -0.000234551 0.00120954 5e-05 0.0102926 -0.00393755 -0.0848356 0 0 -5.1365e-09 
263 1 -0.00027717 -0.000162242 0.00108702 5e-05 0.0383109 0.0330885 -0.0691613 0 0 -5.1365e-09 
63 1 -0.000365813 -0.000152784 0.00116076 5e-05 0.00315704 -0.00279429 -0.10459 0 0 -5.1365e-09 
294 1 0.000446204 -0.000101598 0.00118241 5e-05 -0.0142544 0.00871204 -0.0789342 0 0 -5.1365e-09 
334 1 -0.000429996 -4.87047e-05 0.00114798 5e-05 0.00944147 0.0180846 -0.0827497 0 0 -5.1365e-09 
184 1 -0.000488199 5.08977e-05 0.00111051 5e-05 0.0407038 0.00116874 -0.0550185 0 0 -5.1365e-09 
80 1 -0.000242093 -7.55636e-06 0.00115154 5e-05 -0.00177714 0.0203221 -0.0952337 0 0 -5.1365e-09 
345 1 0.000357766 -5.47478e-05 0.00116816 5e-05 -0.0241584 -0.0267512 -0.0824326 0 0 -5.1365e-09 
267 1 -0.000416938 0.000122841 0.00112683 5e-05 0.0324178 -0.000616158 -0.0773487 0 0 -5.1365e-09 
76 1 -0.000312758 0.000171108 0.00115484 5e-05 0.01287 -0.0417356 -0.109187 0 0 -5.1365e-09 
515 1 0.000340849 0.000151503 0.00108805 5e-05 -0.0492336 -0.0337475 -0.0833938 0 0 -5.1365e-09 
458 1 0.000231049 0.000192851 0.0011256 5e-05 -0.0263426 0.0130056 -0.108061 0 0 -5.1365e-09 
44 1 0.000468257 0.000148206 0.00117319 5e-05 -0.0196288 0.00185371 -0.0925894 0 0 -5.1365e-09 
210 1 -0.000407731 0.000277929 0.00113517 5e-05 0.00675473 -0.00429782 -0.0827431 0 0 -5.1365e-09 
273 1 -0.000287872 0.000282366 0.00116898 5e-05 0.0604473 0.0269883 -0.0565551 0 0 -5.1365e-09 
134 1 7.6765e-05 0.000297957 0.00115073 5e-05 -0.0281402 -0.0060334 -0.0957266 0 0 -5.1365e-09 
66 1 0.000235146 0.000296832 0.00112682 5e-05 -0.00509093 0.0114902 -0.106117 0 0 -5.1365e-09 
120 1 0.000312645 0.00023641 0.00117003 5e-05 -0.0212053 -0.025695 -0.105051 0 0 -5.1365e-09 
16 1 0.000415152 0.000265302 0.0012031 5e-05 -0.0234073 0.000283611 -0.0855895 0 0 -5.1365e-09 
435 1 -0.000219822 0.000421658 0.00113321 5e-05 0.0105444 -0.0281619 -0.0777592 0 0 -5.1365e-09 
450 1 0.000187056 0.000459582 0.0011286 5e-05 -0.0243354 -0.0382267 -0.0522726 0 0 -5.1365e-09 
71 1 0.000290364 0.000418909 0.0011715 5e-05 -0.038232 -0.0178245 -0.0621178 0 0 -5.1365e-09 
399 1 -0.000384508 -0.000411948 0.00135904 5e-05 0.00814566 0.0163277 -0.0604161 0 0 -5.1365e-09 
67 1 -0.000145081 -0.000507115 0.00134867 5e-05 0.0223876 0.0155482 -0.0515752 0 0 -5.1365e-09 
373 1 0.000185835 -0.00049522 0.00130903 5e-05 0.000430832 0.0166237 -0.0687044 0 0 -5.1365e-09 
545 1 0.0002769 -0.000466421 0.00136876 5e-05 0.00150944 0.0186158 -0.0619308 0 0 -5.1365e-09 
417 1 -0.000392342 -0.000345599 0.0012666 5e-05 0.0287326 0.00761346 -0.0573436 0 0 -5.1365e-09 
470 1 -0.000482382 -0.000231287 0.00132823 5e-05 0.0270091 0.0188457 -0.0430742 0 0 -5.1365e-09 
395 1 -0.000361712 -0.000301793 0.00135237 5e-05 0.0029307 0.00703689 -0.0527391 0 0 -5.1365e-09 
99 1 -0.000223485 -0.000339475 0.00132458 5e-05 -0.00605761 -0.00379511 -0.0709406 0 0 -5.1365e-09 
131 1 0.000155565 -0.000269068 0.00124371 5e-05 -0.00678974 0.0201539 -0.0786211 0 0 -5.1365e-09 
236 1 0.000342897 -0.000269028 0.00124527 5e-05 0.0220348 0.0288902 -0.0781487 0 0 -5.1365e-09 
511 1 0.000231101 -0.000350714 0.00136028 5e-05 0.00724937 0.026665 -0.0716938 0 0 -5.1365e-09 
118 1 0.000388209 -0.000377033 0.00130916 5e-05 -0.00413893 0.0307546 -0.0420031 0 0 -5.1365e-09 
31 1 -0.000477352 -0.000162121 0.00124822 5e-05 0.0215794 -0.0107426 -0.068424 0 0 -5.1365e-09 
333 1 -0.000389228 -0.000105568 0.00127526 5e-05 0.0296516 0.00274716 -0.0912397 0 0 -5.1365e-09 
269 1 -0.000371054 -0.000202539 0.00134254 5e-05 0.0168122 -0.0130744 -0.0901676 0 0 -5.1365e-09 
270 1 -0.000299166 -9.64254e-05 0.00135197 5e-05 0.0143365 0.00576769 -0.0772419 0 0 -5.1365e-09 
154 1 -0.000269693 -0.000204913 0.00137577 5e-05 0.00214287 -0.0117043 -0.0732574 0 0 -5.1365e-09 
409 1 -0.000487017 3.40919e-05 0.00123368 5e-05 0.0158856 -0.0219683 -0.0866685 0 0 -5.1365e-09 
338 1 -0.000496609 -3.96301e-05 0.00133121 5e-05 0.028871 -0.018241 -0.0580145 0 0 -5.1365e-09 
568 1 0.000323288 6.0526e-05 0.00124565 5e-05 -0.0222125 -0.0191427 -0.0956794 0 0 -5.1365e-09 
407 1 0.000517409 6.63214e-05 0.00123647 5e-05 -0.00696558 -0.0175763 -0.0658847 0 0 -5.1365e-09 
143 1 0.000439591 -1.90328e-05 0.00126483 5e-05 -0.0204472 -0.00431821 -0.0882281 0 0 -5.1365e-09 
161 1 0.000193057 0.000230379 0.00138221 5e-05 0.00181045 0.00100061 -0.0597148 0 0 -5.1365e-09 
466 1 0.000382415 0.000175925 0.00124128 5e-05 -0.0279119 0.00866615 -0.0991753 0 0 -5.1365e-09 
164 1 0.000304295 0.000229294 0.00130367 5e-05 -0.00184417 -0.0018224 -0.0919653 0 0 -5.1365e-09 
189 1 0.000436712 9.75953e-05 0.00129786 5e-05 -0.0370215 -0.0138382 -0.0763682 0 0 -5.1365e-09 
520 1 0.000510665 0.000204536 0.00130584 5e-05 -0.0254027 0.00375341 -0.092313 0 0 -5.1365e-09 
280 1 -0.000288441 0.000267373 0.00131465 5e-05 1.4403e-05 -0.0384186 -0.0600076 0 0 -5.1365e-09 
223 1 -0.000377613 0.000373701 0.00127944 5e-05 0.000938486 -0.0423144 -0.0364461 0 0 -5.1365e-09 
56 1 -0.000217128 0.000363612 0.00126459 5e-05 -0.0113656 -0.0297823 -0.0800585 0 0 -5.1365e-09 
418 1 0.000378861 0.000357447 0.00125295 5e-05 -0.0228299 -0.0126861 -0.0571384 0 0 -5.1365e-09 
176 1 0.000360443 0.000303019 0.00137002 5e-05 -0.0260831 -0.0065332 -0.0877248 0 0 -5.1365e-09 
105 1 0.000478601 0.000268094 0.00137755 5e-05 0.00393487 -0.00158131 -0.0745124 0 0 -5.1365e-09 
522 1 -0.000334374 0.000396116 0.00137269 5e-05 -0.0137602 -0.00942945 -0.0641349 0 0 -5.1365e-09 
173 1 -0.000130466 0.000524152 0.00130698 5e-05 0.0108212 -0.0082476 -0.0557034 0 0 -5.1365e-09 
106 1 6.80672e-05 0.000522253 0.00136428 5e-05 -0.00482888 -0.0176017 -0.0573684 0 0 -5.1365e-09 
7 1 0.000170595 0.000521031 0.00132833 5e-05 -0.0174178 -0.0122882 -0.0660601 0 0 -5.1365e-09 
265 1 0.000272871 0.000454138 0.0012723 5e-05 -0.0147804 -0.0199208 -0.0579415 0 0 -5.1365e-09 
566 1 0.00030445 0.000418005 0.00137144 5e-05 -0.00438057 0.0164577 -0.0745028 0 0 -5.1365e-09 
556 1 -0.000157699 -0.00056791 0.00152959 5e-05 0.00213726 -0.00230059 -0.039676 0 0 -5.1365e-09 
416 1 -0.000310236 -0.000464994 0.0015226 5e-05 0.0129045 0.0098468 -0.0604004 0 0 -5.1365e-09 
335 1 -0.000223427 -0.000423416 0.00147337 5e-05 -0.0150137 0.00618932 -0.04072 0 0 -5.1365e-09 
14 1 0.000183162 -0.000496854 0.00146128 5e-05 0.00269138 -0.0029902 -0.0496687 0 0 -5.1365e-09 
361 1 0.000313626 -0.000385902 0.00153176 5e-05 -0.00167409 -0.0064202 0.00659113 0 0 -5.1365e-09 
396 1 -0.000431972 -0.000374872 0.00145531 5e-05 0.0253946 -0.00159551 -0.0373924 0 0 -5.1365e-09 
357 1 -0.000508531 -0.000265398 0.00146089 5e-05 0.0230235 -0.00733655 -0.0493529 0 0 -5.1365e-09 
262 1 -0.000392678 -0.000245031 0.00143299 5e-05 0.0159402 0.0124619 -0.0658053 0 0 -5.1365e-09 
286 1 -0.000303282 -0.00036226 0.00141721 5e-05 0.0106009 0.0161712 -0.077515 0 0 -5.1365e-09 
544 1 -0.00022243 -0.00030685 0.00144351 5e-05 0.0260577 0.00627215 -0.0463537 0 0 -5.1365e-09 
203 1 0.000215186 -0.000358216 0.00150195 5e-05 0.00996011 0.0137032 -0.0521402 0 0 -5.1365e-09 
255 1 0.000465019 -0.000348801 0.00149751 5e-05 0.00411011 0.000348342 -0.00717699 0 0 -5.1365e-09 
518 1 0.000521349 -0.000250373 0.00148312 5e-05 -0.0042332 0.0134166 -0.0360748 0 0 -5.1365e-09 
495 1 -0.000555331 -0.000102325 0.00142062 5e-05 -0.00666392 -0.00870183 -0.0665107 0 0 -5.1365e-09 
137 1 -0.000482375 -0.000169678 0.00144577 5e-05 0.0230391 -0.00288471 -0.0773889 0 0 -5.1365e-09 
484 1 -0.000231149 -0.000142545 0.00144584 5e-05 -0.0146375 -0.0133515 -0.056955 0 0 -5.1365e-09 
15 1 -0.00035437 -0.000109528 0.00148018 5e-05 0.00830234 -0.00885978 -0.066462 0 0 -5.1365e-09 
93 1 0.000552808 -0.000152452 0.00150262 5e-05 -0.00479382 0.0177427 -0.0308801 0 0 -5.1365e-09 
145 1 -0.000571425 3.8791e-05 0.00143404 5e-05 -0.00938977 4.04633e-05 -0.0594303 0 0 -5.1365e-09 
527 1 -0.000412537 -7.6491e-05 0.00140556 5e-05 0.0226733 -0.00731862 -0.0736798 0 0 -5.1365e-09 
58 1 -0.000485192 -4.53313e-05 0.00147472 5e-05 -0.00672132 3.10321e-05 -0.0677592 0 0 -5.1365e-09 
364 1 -0.00039367 2.78022e-05 0.00151717 5e-05 -0.0111947 -0.0142495 -0.023227 0 0 -5.1365e-09 
77 1 0.000259165 3.34922e-05 0.00141948 5e-05 -0.0186214 0.00770742 -0.0505297 0 0 -5.1365e-09 
198 1 0.000527695 -4.65572e-05 0.00139058 5e-05 0.0139509 0.0245678 -0.0710158 0 0 -5.1365e-09 
69 1 0.000399935 1.29477e-05 0.00145181 5e-05 -0.00696281 0.00289363 -0.0588741 0 0 -5.1365e-09 
386 1 0.000415341 -7.37232e-05 0.00153725 5e-05 0.0103022 0.0180909 -0.0114978 0 0 -5.1365e-09 
307 1 0.000495936 7.15509e-05 0.00153256 5e-05 0.0193281 0.00478033 -0.0428048 0 0 -5.1365e-09 
327 1 0.000577879 4.88939e-05 0.00146121 5e-05 -0.020374 0.00395925 -0.0568832 0 0 -5.1365e-09 
245 1 -0.000563373 0.000136464 0.00150442 5e-05 0.0157879 0.00405908 -0.00111389 0 0 -5.1365e-09 
451 1 0.000296319 0.00022356 0.00145935 5e-05 0.0133522 -0.00504505 -0.0597839 0 0 -5.1365e-09 
426 1 0.00035065 0.000121764 0.00144715 5e-05 -0.00670199 -0.0119464 -0.0676635 0 0 -5.1365e-09 
64 1 0.000263976 0.000119475 0.00150538 5e-05 0.00415241 0.0159968 -0.0445552 0 0 -5.1365e-09 
500 1 0.000450602 0.000111053 0.00143863 5e-05 -5.40768e-05 -0.0410408 -0.0649279 0 0 -5.1365e-09 
94 1 0.000572357 0.000150566 0.00152917 5e-05 -0.0363459 0.0123789 -0.0284999 0 0 -5.1365e-09 
8 1 0.000250418 0.000342074 0.00142114 5e-05 -0.00473605 0.000641062 -0.0747761 0 0 -5.1365e-09 
1 1 0.000325279 0.000372586 0.00148983 5e-05 -0.0261426 -0.0157248 -0.049135 0 0 -5.1365e-09 
539 1 0.000474042 0.000348697 0.00151672 5e-05 -0.0439124 -0.0329432 -0.0321512 0 0 -5.1365e-09 
404 1 0.000497933 0.000245893 0.00149288 5e-05 -0.0538293 -0.00799606 -0.0575821 0 0 -5.1365e-09 
505 1 -0.000441919 0.000392887 0.00148316 5e-05 6.79178e-05 4.08078e-05 -0.000152383 1.82543e-10 1.08305e-10 -4.10211e-10 
540 1 -0.000259801 0.000495714 0.00139651 5e-05 -0.00231422 -0.0168664 -0.0492709 0 0 -5.1365e-09 
561 1 -0.000354201 0.000475933 0.0015156 5e-05 0.0223586 0.00155639 -0.0254629 0 0 -5.1365e-09 
565 1 -0.000308342 0.000392864 0.00147384 5e-05 -0.0194308 -0.00246404 -0.0531802 0 0 -5.1365e-09 
486 1 -0.000155699 0.00045344 0.0014181 5e-05 0.00974772 -0.0129518 -0.0624425 0 0 -5.1365e-09 
163 1 -0.000173159 0.000391131 0.00150831 5e-05 -0.00900056 -0.00593503 -0.0512757 0 0 -5.1365e-09 
260 1 0.000224378 0.00048717 0.00153669 5e-05 0.014403 0.00506904 -0.057532 0 0 -5.1365e-09 
79 1 0.000115848 0.000529189 0.00153192 5e-05 0.00200882 0.000825679 -0.0335428 0 0 -5.1365e-09 
187 1 0.000310593 0.000479983 0.0014737 5e-05 0.00651305 -0.0125974 -0.0663767 0 0 -5.1365e-09 
234 1 0.000398107 0.000410336 0.00143161 5e-05 -0.0111151 -0.0288301 -0.0312039 0 0 -5.1365e-09 
119 1 -8.00693e-05 0.00059002 0.00153656 5e-05 -0.00237662 0.0216096 -0.000199803 0 0 -5.1365e-09 
571 1 -5.06309e-05 0.000558909 0.0013976 5e-05 -0.00747543 -0.0153405 -0.0437571 0 0 -5.1365e-09 
533 1 -0.000267733 -0.000557967 0.00163454 5e-05 0.00206446 0.0146137 -0.0237352 0 0 -5.1365e-09 
200 1 -3.86203e-05 -0.000609738 0.00161437 5e-05 0.00447798 0.000761499 -0.012015 0 0 -5.1365e-09 