ITEM: TIMESTEP
23000
ITEM: NUMBER OF ATOMS
551
ITEM: BOX BOUNDS ff ff ff
-0.001 0.001
-0.001 0.001
0 0.004
ITEM: ATOMS id type x y z radius vx vy vz fx fy fz 
73 1 0.000104055 -0.000196467 5.00505e-05 5e-05 -0.0673884 0.024466 -0.0924655 0 0 -5.1365e-09 
182 1 -0.000186215 -0.000132446 4.47333e-05 5e-05 -0.0318081 0.019406 -0.154462 0 0 -5.1365e-09 
276 1 -0.000181292 0.000567102 0.00195183 5e-05 0.00595015 0.00262975 -0.00862961 0 0 -5.1365e-09 
328 1 5.16761e-05 -0.000200519 -7.67919e-05 5e-05 -0.00265685 -0.0146352 -0.215646 0 0 -5.1365e-09 
322 1 0.000185596 -0.000130282 4.8889e-05 5e-05 -0.0085337 0.0237303 -0.096769 0 0 -5.1365e-09 
487 1 0.000356938 0.000412565 0.00190032 5e-05 0.00901034 -0.0207413 -0.0335007 0 0 -5.1365e-09 
183 1 -5.01668e-05 9.98543e-06 2.15246e-05 5e-05 0.0275456 0.0303878 -0.120442 0 0 -5.1365e-09 
542 1 1.53992e-05 0.000457832 0.00189677 5e-05 -0.018838 0.0126578 -0.0447859 0 0 -5.1365e-09 
132 1 0.000236442 1.99771e-05 2.83466e-05 5e-05 -0.0417264 0.0641248 -0.0873676 0 0 -5.1365e-09 
311 1 -0.000134775 8.49033e-05 -3.72666e-05 5e-05 -0.0680984 0.0428149 -0.162065 0 0 -5.1365e-09 
501 1 -0.000514848 0.000321003 0.0018411 5e-05 -0.0481898 -0.00916574 -0.0229051 0 0 -5.1365e-09 
374 1 -0.000587302 4.09216e-05 0.0018333 5e-05 -0.0229235 -0.0592798 -0.021291 0 0 -5.1365e-09 
529 1 5.32276e-05 0.000231232 2.81339e-05 5e-05 -0.0243942 0.00190281 -0.164437 0 0 -5.1365e-09 
23 1 -7.18592e-05 -0.000274036 0.000188272 5e-05 0.0326266 0.0517385 -0.0646013 0 0 -5.1365e-09 
551 1 1.51873e-06 -0.000255335 6.4351e-05 5e-05 0.03358 0.0373342 -0.0752537 0 0 -5.1365e-09 
367 1 -0.000190409 -7.16496e-05 0.000172586 5e-05 -0.0132462 0.0575669 -0.0353715 0 0 -5.1365e-09 
453 1 -0.000109958 -0.00018175 0.000160319 5e-05 0.0140572 -0.0240746 -0.112645 0 0 -5.1365e-09 
285 1 -9.50352e-06 -0.000143706 6.68723e-05 5e-05 0.0286252 0.0850135 -0.140281 0 0 -5.1365e-09 
89 1 9.13552e-05 -0.000149949 0.000200175 5e-05 0.0309846 -0.0449962 -0.116721 0 0 -5.1365e-09 
509 1 -0.000189284 -1.33196e-05 5.0461e-05 5e-05 0.0210582 -0.0174484 -0.187325 0 0 -5.1365e-09 
49 1 -8.89204e-05 -1.66856e-05 0.000167925 5e-05 0.0822057 0.00622549 -0.165172 0 0 -5.1365e-09 
485 1 1.69523e-05 7.43086e-05 6.13539e-05 5e-05 -0.0199051 0.0618883 -0.183759 0 0 -5.1365e-09 
222 1 0.000237833 -5.19659e-05 0.000158958 5e-05 0.0405199 -0.00062696 -0.202564 0 0 -5.1365e-09 
24 1 7.36746e-05 -6.27011e-05 9.74731e-05 5e-05 -0.0474083 -0.0312265 -0.151829 0 0 -5.1365e-09 
37 1 0.000128619 4.87937e-05 0.000152134 5e-05 -0.0406319 0.00128731 -0.108764 0 0 -5.1365e-09 
493 1 0.00022267 5.99919e-05 0.000192659 5e-05 -0.0153973 0.0179385 -0.1183 0 0 -5.1365e-09 
422 1 -5.02246e-05 0.000239748 0.000176521 5e-05 0.0603516 0.0463829 -0.0902145 0 0 -5.1365e-09 
128 1 -0.000195217 0.000119918 4.73523e-05 5e-05 0.112291 -0.0505461 -0.1023 0 0 -5.1365e-09 
86 1 -0.000106688 8.83357e-05 0.000209732 5e-05 -0.0349601 -0.0486793 -0.168931 0 0 -5.1365e-09 
115 1 3.86252e-05 0.00018805 0.000158118 5e-05 -0.0510059 -0.018054 -0.155765 0 0 -5.1365e-09 
57 1 0.000119199 0.000133664 -2.44092e-05 5e-05 -0.0121078 -0.00676619 -0.220885 0 0 -5.1365e-09 
459 1 0.000127702 0.000234656 0.00015796 5e-05 -0.0377611 0.0159547 -0.151695 0 0 -5.1365e-09 
558 1 5.3752e-05 -0.000251088 0.000247737 5e-05 -0.0468317 0.0335765 -0.111358 0 0 -5.1365e-09 
239 1 -0.000233662 -0.00013723 0.000314762 5e-05 0.00646673 -0.0559377 -0.0600824 0 0 -5.1365e-09 
379 1 -0.000110794 -0.000183283 0.000278023 5e-05 -0.0305279 -0.0110116 -0.136628 0 0 -5.1365e-09 
321 1 -7.89981e-05 -6.14963e-05 0.000263811 5e-05 0.0713391 0.05988 -0.146775 0 0 -5.1365e-09 
541 1 0.000136283 -0.000117898 0.000293815 5e-05 0.0234377 -0.00234725 -0.131195 0 0 -5.1365e-09 
383 1 -0.0002754 1.12205e-05 0.0002914 5e-05 0.0165266 0.0412549 -0.15943 0 0 -5.1365e-09 
482 1 -0.000203024 3.78688e-05 0.000170017 5e-05 0.0303123 -0.024959 -0.181655 0 0 -5.1365e-09 
463 1 -0.000180862 -3.84327e-05 0.000285887 5e-05 0.013576 -0.0263713 -0.122267 0 0 -5.1365e-09 
251 1 1.84105e-05 -8.02976e-05 0.000210825 5e-05 -0.00122909 0.0310108 -0.106815 0 0 -5.1365e-09 
299 1 0.000135797 -6.07596e-05 0.000187066 5e-05 0.060985 0.0372892 -0.15331 0 0 -5.1365e-09 
13 1 0.000200799 -2.98774e-05 0.000272398 5e-05 0.0329761 0.0678154 -0.148941 0 0 -5.1365e-09 
434 1 0.000113486 9.82101e-05 0.00026457 5e-05 0.0102234 0.0357536 -0.15756 0 0 -5.1365e-09 
350 1 0.000265116 5.84165e-05 0.000284704 5e-05 0.00433999 0.0100827 -0.107651 0 0 -5.1365e-09 
10 1 -0.000215472 0.000166671 0.000283432 5e-05 -0.0400178 -0.00916106 -0.124314 0 0 -5.1365e-09 
388 1 -0.000180257 6.8253e-05 0.000293203 5e-05 0.0124183 0.0143006 -0.131882 0 0 -5.1365e-09 
475 1 -1.71233e-05 0.000140482 0.000266613 5e-05 -0.00859348 -0.031985 -0.111252 0 0 -5.1365e-09 
60 1 3.5777e-05 0.000202717 0.000334416 5e-05 0.000349676 -0.0315178 -0.0738825 0 0 -5.1365e-09 
91 1 0.00020156 0.000152704 0.000294471 5e-05 -0.00755619 0.0101759 -0.178503 0 0 -5.1365e-09 
108 1 -0.000129377 0.000254458 0.00030711 5e-05 -0.00141581 0.0350194 -0.147961 0 0 -5.1365e-09 
90 1 0.000151214 0.00024124 0.0003091 5e-05 -0.00839091 -0.0534332 -0.10764 0 0 -5.1365e-09 
489 1 -6.75069e-05 -0.000329283 0.000477857 5e-05 0.0166878 -0.0120476 -0.0784175 0 0 -5.1365e-09 
528 1 -5.58945e-05 -0.000231732 0.000411118 5e-05 -0.0144774 0.035255 -0.115389 0 0 -5.1365e-09 
402 1 0.000106604 -0.000280761 0.000458837 5e-05 -0.0500799 -0.0118093 -0.131833 0 0 -5.1365e-09 
153 1 -0.000136363 -0.000121593 0.000381064 5e-05 -0.0214931 0.0419998 -0.172176 0 0 -5.1365e-09 
449 1 -6.40394e-05 -9.36323e-05 0.000508836 5e-05 0.0292641 0.0199267 -0.130376 0 0 -5.1365e-09 
25 1 3.41506e-05 -0.000159473 0.000336583 5e-05 -0.0162761 -0.0114012 -0.16895 0 0 -5.1365e-09 
92 1 4.66968e-05 -0.000190863 0.000436286 5e-05 0.0507105 -0.020247 -0.160918 0 0 -5.1365e-09 
381 1 0.000141227 -0.00017593 0.000378587 5e-05 0.0278496 0.0130533 -0.0720645 0 0 -5.1365e-09 
141 1 0.000200374 -0.000130325 0.000495472 5e-05 -0.0184681 0.0285633 -0.142123 0 0 -5.1365e-09 
331 1 0.000246956 -0.000146208 0.00037987 5e-05 -0.0138036 0.0280761 -0.170967 0 0 -5.1365e-09 
123 1 -0.000324207 5.04691e-05 0.000375052 5e-05 0.0383972 -0.00398511 -0.0954466 0 0 -5.1365e-09 
363 1 -0.000215917 -4.95341e-05 0.000459835 5e-05 0.0537054 -0.0240444 -0.165081 0 0 -5.1365e-09 
61 1 -0.00033397 -4.11244e-05 0.00043596 5e-05 0.028185 -0.0118752 -0.159235 0 0 -5.1365e-09 
126 1 -0.000209627 2.47453e-05 0.000386698 5e-05 0.0366231 -0.0298241 -0.124459 0 0 -5.1365e-09 
30 1 -9.9242e-05 -1.64558e-05 0.000378136 5e-05 0.0417488 0.00517168 -0.168291 0 0 -5.1365e-09 
564 1 2.49295e-05 -5.51218e-05 0.000405268 5e-05 0.00327627 0.042218 -0.12688 0 0 -5.1365e-09 
78 1 9.379e-05 2.5683e-06 0.000343579 5e-05 0.00787804 0.040232 -0.186175 -8.99376e-07 -3.90071e-07 3.18433e-07 
549 1 0.000152133 4.55494e-05 0.000472296 5e-05 0.0168581 0.0400547 -0.172611 0 0 -5.1365e-09 
17 1 0.000170189 6.68701e-05 0.000348189 5e-05 -0.0822748 0.0502624 -0.143327 8.99376e-07 3.90071e-07 -3.28706e-07 
136 1 0.000340584 -3.03005e-05 0.000428018 5e-05 -0.0069562 0.0336789 -0.142087 0 0 -5.1365e-09 
457 1 0.000308103 7.33981e-05 0.000424993 5e-05 -0.00435406 0.0191061 -0.155864 0 0 -5.1365e-09 
393 1 -0.000266207 0.000101386 0.00044431 5e-05 0.0283449 0.035884 -0.0858511 0 0 -5.1365e-09 
537 1 -0.000244218 0.000198635 0.000470345 5e-05 0.0671301 -0.0744106 -0.0996146 0 0 -5.1365e-09 
358 1 9.56182e-05 0.000127698 0.000395541 5e-05 0.0034298 0.0377365 -0.0940756 0 0 -5.1365e-09 
50 1 0.000219671 0.000147775 0.00042626 5e-05 -0.0374045 0.0398305 -0.145449 0 0 -5.1365e-09 
560 1 -0.000169909 0.000288697 0.000492435 5e-05 0.0367413 -0.0744104 -0.0745034 0 0 -5.1365e-09 
384 1 5.28708e-05 0.000286865 0.000387187 5e-05 -0.0165637 0.0278652 -0.0905631 0 0 -5.1365e-09 
401 1 -8.85377e-05 -0.000229887 0.000543085 5e-05 0.0253815 0.0647601 -0.103823 0 0 -5.1365e-09 
473 1 -6.09593e-05 -0.000363735 0.00058031 5e-05 0.0293213 -0.00360881 -0.117935 0 0 -5.1365e-09 
168 1 -0.000132364 -0.000322713 0.000659561 5e-05 0.0184157 -0.0277956 -0.104809 0 0 -5.1365e-09 
196 1 6.18581e-06 -0.000191317 0.000590942 5e-05 -0.0405843 0.0558743 -0.102259 0 0 -5.1365e-09 
291 1 0.000250404 -0.000263724 0.000641138 5e-05 -0.00826705 0.0397712 -0.139348 0 0 -5.1365e-09 
387 1 -0.000344614 -0.000151452 0.000688595 5e-05 0.0411933 -0.0168363 -0.074308 0 0 -5.1365e-09 
75 1 -0.000199799 -0.00010393 0.000584037 5e-05 0.0631356 -0.0196673 -0.156371 0 0 -5.1365e-09 
160 1 -0.000175635 -0.000235226 0.000594996 5e-05 0.0350306 -0.0235652 -0.150939 0 0 -5.1365e-09 
305 1 -3.05037e-05 -5.6452e-05 0.000652148 5e-05 0.0134581 0.0350753 -0.0880228 0 0 -5.1365e-09 
448 1 8.66616e-05 -0.000127991 0.000542763 5e-05 -0.0038136 -0.0339399 -0.165677 0 0 -5.1365e-09 
121 1 0.000266322 -0.000206184 0.000554368 5e-05 -0.0326979 -0.00375354 -0.123373 0 0 -5.1365e-09 
35 1 0.000303158 -0.000171938 0.00068193 5e-05 -0.0480885 0.0252094 -0.0948779 0 0 -5.1365e-09 
47 1 -0.000216085 4.57714e-05 0.000553598 5e-05 0.0323451 0.00282082 -0.111875 0 0 -5.1365e-09 
421 1 -0.00031605 2.87453e-05 0.000555178 5e-05 0.0552931 0.0131648 -0.106652 0 0 -5.1365e-09 
142 1 -0.00013072 -1.13656e-05 0.000555751 5e-05 0.0337139 -0.015677 -0.16894 0 0 -5.1365e-09 
507 1 7.66364e-05 -3.44177e-05 0.000624975 5e-05 0.0134699 0.0184461 -0.116425 0 0 -5.1365e-09 
170 1 0.000194281 -3.64635e-05 0.000537349 5e-05 -0.00916788 -0.00100778 -0.161341 0 0 -5.1365e-09 
261 1 0.000244642 7.4012e-05 0.000516382 5e-05 -0.0303896 0.0153443 -0.136008 0 0 -5.1365e-09 
274 1 0.00031137 -3.78296e-05 0.000525214 5e-05 -0.0172879 0.0218745 -0.140879 0 0 -5.1365e-09 
340 1 0.00027303 2.12616e-05 0.00061021 5e-05 -0.0252398 0.0014353 -0.144151 0 0 -5.1365e-09 
320 1 -0.000301809 0.000174099 0.000581257 5e-05 0.00582546 -0.0326693 -0.116748 0 0 -5.1365e-09 
87 1 -9.36215e-05 0.000229224 0.000528669 5e-05 0.0319007 0.0106725 -0.113748 0 0 -5.1365e-09 
389 1 -0.000106701 0.000193631 0.000646856 5e-05 0.0757896 -0.0206006 -0.12533 0 0 -5.1365e-09 
324 1 -0.000136463 5.88851e-05 0.000631872 5e-05 0.0574696 -0.0334858 -0.130424 0 0 -5.1365e-09 
213 1 7.08684e-05 9.4696e-05 0.000521546 5e-05 -0.0221948 -0.000145052 -0.134697 0 0 -5.1365e-09 
454 1 0.000153933 0.000102507 0.000598748 5e-05 0.00572443 -0.00850431 -0.0919054 0 0 -5.1365e-09 
497 1 0.000234632 0.000184894 0.000534233 5e-05 -0.021321 0.00557709 -0.148146 0 0 -5.1365e-09 
287 1 0.000254387 0.000129324 0.000662563 5e-05 -0.0264145 0.0122707 -0.122904 0 0 -5.1365e-09 
441 1 9.8776e-05 0.000238775 0.000536697 5e-05 -0.0857727 -0.00872497 -0.105929 0 0 -5.1365e-09 
74 1 0.000196429 0.000317676 0.000642657 5e-05 -0.03444 0.0122581 -0.15408 0 0 -5.1365e-09 
476 1 7.83953e-05 0.000377273 0.000718577 5e-05 -0.0421555 0.0307149 -0.0616496 0 0 -5.1365e-09 
281 1 4.02988e-05 -0.000232601 0.000712267 5e-05 0.0874492 0.00494075 -0.110906 0 0 -5.1365e-09 
42 1 9.46836e-05 -0.000337978 0.000747381 5e-05 0.0148349 0.0488277 -0.109235 0 0 -5.1365e-09 
159 1 0.000310562 -0.000259984 0.000803786 5e-05 0.00427186 0.0276687 -0.0696626 0 0 -5.1365e-09 
429 1 -0.00037978 -0.000154641 0.000817053 5e-05 0.0468061 -0.0102262 -0.0806337 0 0 -5.1365e-09 
342 1 -0.00029427 -0.000240491 0.000696655 5e-05 0.0324615 -0.0156509 -0.139905 0 0 -5.1365e-09 
51 1 -7.54895e-05 -0.000156761 0.000684262 5e-05 0.0536173 0.00360564 -0.151281 0 0 -5.1365e-09 
538 1 0.000189129 -0.000156425 0.000682848 5e-05 -0.0478425 0.0212141 -0.139588 0 0 -5.1365e-09 
496 1 0.000309825 -0.00013742 0.000791277 5e-05 -0.039532 0.0102079 -0.102953 0 0 -5.1365e-09 
26 1 -0.000411244 -2.57674e-05 0.000771007 5e-05 0.0237081 -0.0102292 -0.124001 0 0 -5.1365e-09 
6 1 -0.000265542 -6.03864e-05 0.000719455 5e-05 0.0621378 -0.0234729 -0.0990195 0 0 -5.1365e-09 
214 1 -0.000277302 1.52243e-05 0.000786762 5e-05 0.043817 -0.0314168 -0.135539 0 0 -5.1365e-09 
228 1 -0.00010899 -1.57392e-05 0.000771322 5e-05 -0.0439509 -0.0505929 -0.1176 0 0 -5.1365e-09 
330 1 0.000271933 2.49658e-05 0.000756698 5e-05 -0.052609 0.0237038 -0.139736 0 0 -5.1365e-09 
447 1 0.000391143 -2.40231e-05 0.000730744 5e-05 -0.0166296 0.0321494 -0.111545 0 0 -5.1365e-09 
266 1 0.000397921 6.45231e-05 0.000821353 5e-05 -0.00817132 0.0254717 -0.128598 0 0 -5.1365e-09 
226 1 -0.000360208 8.49972e-05 0.000761661 5e-05 0.00683032 0.00232033 -0.0967287 0 0 -5.1365e-09 
95 1 -0.000229381 6.44773e-05 0.000697323 5e-05 0.0400407 -0.0192845 -0.149849 0 0 -5.1365e-09 
224 1 -0.000308786 0.000214139 0.000704281 5e-05 0.0415504 -0.0191082 -0.11405 0 0 -5.1365e-09 
347 1 -0.000180534 0.000138319 0.000801137 5e-05 0.0223649 0.00709058 -0.138311 0 0 -5.1365e-09 
504 1 9.86238e-05 0.000162582 0.000716164 5e-05 -0.0128118 -0.0137337 -0.139815 0 0 -5.1365e-09 
346 1 0.000236379 0.000229591 0.000674891 5e-05 -0.0229216 0.00415939 -0.148509 0 0 -5.1365e-09 
84 1 0.00031869 0.000190421 0.000729357 5e-05 -0.0583331 0.00233191 -0.0995347 0 0 -5.1365e-09 
479 1 0.000233159 0.000130047 0.000772838 5e-05 -0.0936296 -0.00648454 -0.124523 0 0 -5.1365e-09 
140 1 1.94813e-07 0.000273971 0.000762851 5e-05 -0.0180171 -0.0287945 -0.132738 0 0 -5.1365e-09 
256 1 5.86381e-05 0.000257175 0.000681245 5e-05 -0.0777145 0.0224201 -0.150377 0 0 -5.1365e-09 
244 1 0.000289072 0.000298329 0.000751223 5e-05 -0.0150257 -0.0357732 -0.0723183 0 0 -5.1365e-09 
502 1 4.80823e-05 0.00041129 0.000817551 5e-05 -0.00553477 -0.0287003 -0.11856 0 0 -5.1365e-09 
107 1 0.000141147 -0.000398031 0.000957781 5e-05 0.000932824 0.017217 -0.10421 0 0 -5.1365e-09 
227 1 -0.000277216 -0.000279561 0.000870373 5e-05 0.0288111 -0.00950468 -0.131759 0 0 -5.1365e-09 
317 1 8.53019e-05 -0.000264112 0.000902695 5e-05 0.00802177 0.0463019 -0.107779 0 0 -5.1365e-09 
296 1 0.000255386 -0.000282763 0.000984823 5e-05 -0.0121306 0.0397209 -0.0764414 0 0 -5.1365e-09 
337 1 -0.000395442 -0.000217772 0.000939034 5e-05 0.039074 0.00119773 -0.0883488 0 0 -5.1365e-09 
165 1 -0.000241988 -0.000179744 0.000858205 5e-05 0.051582 -0.0138854 -0.12742 0 0 -5.1365e-09 
103 1 -0.000324839 -0.000134616 0.000923685 5e-05 0.0324612 -0.0017156 -0.120106 0 0 -5.1365e-09 
312 1 -0.000227437 -0.000133243 0.000960917 5e-05 0.0389473 0.00174322 -0.118839 0 0 -5.1365e-09 
455 1 -0.000127243 -0.000121045 0.000862122 5e-05 0.0145165 -0.0156057 -0.129003 0 0 -5.1365e-09 
204 1 -0.000163923 -0.000241676 0.000944305 5e-05 0.0343415 -0.036444 -0.125976 0 0 -5.1365e-09 
3 1 -1.97751e-05 -0.000175973 0.000856707 5e-05 -0.00102892 0.0587828 -0.121223 0 0 -5.1365e-09 
325 1 0.000245557 -7.55888e-05 0.000911112 5e-05 -0.0386831 0.00476019 -0.12335 0 0 -5.1365e-09 
258 1 0.000422671 -0.000154131 0.00100548 5e-05 -0.023577 0.00886981 -0.0775236 0 0 -5.1365e-09 
438 1 -0.00040711 -7.74617e-06 0.000870896 5e-05 0.0395848 0.00263528 -0.110933 0 0 -5.1365e-09 
45 1 -0.000310141 -7.09152e-05 0.000843972 5e-05 0.0640202 0.0121897 -0.125954 0 0 -5.1365e-09 
431 1 -0.000147424 -3.94831e-05 0.000980371 5e-05 0.0324941 -0.0103705 -0.117447 0 0 -5.1365e-09 
155 1 0.000101019 -5.99121e-05 0.000982753 5e-05 -0.0602652 0.0143934 -0.108235 0 0 -5.1365e-09 
34 1 0.000238422 6.63874e-05 0.000851899 5e-05 -0.0465298 0.0306488 -0.121971 0 0 -5.1365e-09 
100 1 0.000310962 1.66384e-05 0.000905565 5e-05 -0.0592413 0.00283794 -0.114137 0 0 -5.1365e-09 
208 1 0.000468333 5.15999e-06 0.000970924 5e-05 -0.0206083 0.00261306 -0.106481 0 0 -5.1365e-09 
297 1 -0.000404305 0.000182047 0.000966155 5e-05 0.0459394 0.00598592 -0.0688591 0 0 -5.1365e-09 
109 1 -0.000278024 0.000127293 0.000822425 5e-05 0.0372671 -0.00580064 -0.143139 0 0 -5.1365e-09 
225 1 0.000135063 0.000206449 0.000829722 5e-05 -0.0325784 0.0113957 -0.129803 0 0 -5.1365e-09 
135 1 0.000276165 0.000222059 0.00096788 5e-05 -0.0361682 0.00346447 -0.101425 0 0 -5.1365e-09 
282 1 0.000373092 0.00022414 0.000901411 5e-05 -0.0208245 0.0132805 -0.10517 0 0 -5.1365e-09 
11 1 0.000440813 0.000126981 0.000965371 5e-05 -0.043353 0.00312805 -0.0784364 0 0 -5.1365e-09 
174 1 -0.000268638 0.000188885 0.00101472 5e-05 0.0307201 -0.0561326 -0.0668087 0 0 -5.1365e-09 
181 1 -4.30037e-05 0.000245925 0.000856726 5e-05 -0.00806372 -0.0465356 -0.126856 0 0 -5.1365e-09 
413 1 0.000240841 0.000345383 0.000929258 5e-05 -0.0316042 0.00293413 -0.113948 0 0 -5.1365e-09 
218 1 0.000137058 0.000426685 0.000988448 5e-05 -0.062209 0.00315476 -0.0725304 0 0 -5.1365e-09 
68 1 -0.000269574 -0.000415261 0.00113058 5e-05 0.0365535 0.0132784 -0.0669141 0 0 -5.1365e-09 
113 1 -0.000201473 -0.0004225 0.00101804 5e-05 0.0302533 -0.00214568 -0.101721 0 0 -5.1365e-09 
9 1 -5.06556e-05 -0.000432033 0.00101647 5e-05 0.00678737 0.0247327 -0.0937321 0 0 -5.1365e-09 
514 1 -0.000365781 -0.00028166 0.00102669 5e-05 0.0274243 -0.00397883 -0.0883713 0 0 -5.1365e-09 
29 1 -0.000367343 -0.000331372 0.00114753 5e-05 0.0251874 0.0105031 -0.0652189 0 0 -5.1365e-09 
400 1 -0.000277158 -0.000322163 0.00106565 5e-05 0.0221564 0.0002051 -0.113537 0 0 -5.1365e-09 
295 1 -0.000323733 -0.000231806 0.00111091 5e-05 0.0217193 -0.0133197 -0.125733 0 0 -5.1365e-09 
536 1 4.13125e-05 -0.000368349 0.0010034 5e-05 -0.0261761 0.0164194 -0.103059 0 0 -5.1365e-09 
355 1 -0.000438557 -0.000133756 0.000993285 5e-05 0.0294099 -0.0180172 -0.110571 0 0 -5.1365e-09 
83 1 -0.000463261 -0.000142744 0.00112099 5e-05 0.0140709 -0.0222573 -0.096878 0 0 -5.1365e-09 
191 1 -0.00028412 -0.000218955 0.000996377 5e-05 0.0333531 -0.0147089 -0.102484 0 0 -5.1365e-09 
397 1 -0.000366727 -0.000144063 0.00107085 5e-05 0.0119353 -0.00178251 -0.131672 0 0 -5.1365e-09 
467 1 0.000331327 -8.41631e-05 0.00104547 5e-05 -0.0242381 -0.0112998 -0.121865 0 0 -5.1365e-09 
316 1 0.000260887 -0.00019764 0.00115607 5e-05 -0.0208822 0.0389342 -0.0757114 0 0 -5.1365e-09 
215 1 0.000357545 -0.000170092 0.00113882 5e-05 -0.0289344 -0.00145928 -0.0828338 0 0 -5.1365e-09 
111 1 -0.000485762 -4.304e-05 0.00109377 5e-05 0.0025458 -0.00579686 -0.101723 0 0 -5.1365e-09 
179 1 -0.000387979 1.91416e-05 0.001097 5e-05 0.0490759 -0.0614783 -0.064436 0 0 -5.1365e-09 
506 1 -0.000343579 -1.88885e-06 0.000984358 5e-05 0.0298076 -0.00094984 -0.121095 0 0 -5.1365e-09 
329 1 -0.000242792 -5.25613e-05 0.0010272 5e-05 0.0445987 0.000961369 -0.104697 0 0 -5.1365e-09 
82 1 -8.60492e-05 -3.83021e-05 0.00112637 5e-05 -0.0582155 -0.0180804 -0.0943875 0 0 -5.1365e-09 
304 1 0.000232088 3.85508e-05 0.00102107 5e-05 -0.0447114 -0.000968943 -0.110085 0 0 -5.1365e-09 
194 1 0.000497152 3.94669e-06 0.00112494 5e-05 0.00287256 -0.00632484 -0.0737051 0 0 -5.1365e-09 
512 1 0.000369292 -1.57703e-06 0.0010887 5e-05 -0.0314568 0.0138309 -0.119483 0 0 -5.1365e-09 
351 1 -0.00043168 9.00933e-05 0.00102668 5e-05 0.0167496 -0.00701556 -0.0932234 0 0 -5.1365e-09 
339 1 -0.00048718 9.12336e-05 0.00115547 5e-05 0.0244907 -0.00643847 -0.0644944 0 0 -5.1365e-09 
547 1 0.000169486 0.000206602 0.000997597 5e-05 -0.0420169 0.0252196 -0.111171 0 0 -5.1365e-09 
195 1 0.000331894 6.43847e-05 0.00101927 5e-05 -0.0506203 -0.0174855 -0.118633 0 0 -5.1365e-09 
371 1 0.000232765 0.00020757 0.00113064 5e-05 -0.0298536 0.00115212 -0.0979794 0 0 -5.1365e-09 
205 1 0.000303823 0.000121838 0.00109949 5e-05 -0.0258925 0.0088275 -0.109586 0 0 -5.1365e-09 
175 1 0.0004638 0.000156548 0.00107506 5e-05 -0.00389267 0.00679107 -0.0808249 0 0 -5.1365e-09 
408 1 -0.000400421 0.000245819 0.00111748 5e-05 0.00855656 -0.0332929 -0.0878192 0 0 -5.1365e-09 
290 1 0.000350239 0.000338447 0.00113557 5e-05 -0.0238882 -0.00163888 -0.0722806 0 0 -5.1365e-09 
444 1 0.000376977 0.00023714 0.001087 5e-05 -0.0337331 -0.013586 -0.105092 0 0 -5.1365e-09 
394 1 -0.000195661 0.000358867 0.00106699 5e-05 0.00989447 -0.0590557 -0.0764025 0 0 -5.1365e-09 
88 1 -0.000224063 0.000440935 0.00115782 5e-05 0.000313145 -0.042889 -0.0633877 0 0 -5.1365e-09 
548 1 -4.96966e-05 0.000482192 0.00111605 5e-05 -0.00349288 -0.0205735 -0.0650317 0 0 -5.1365e-09 
207 1 4.27963e-05 -0.000525632 0.00127504 5e-05 0.0264567 0.0296779 -0.0629067 0 0 -5.1365e-09 
283 1 -0.000150249 -0.000487683 0.00132001 5e-05 0.00775486 0.00975003 -0.0610305 0 0 -5.1365e-09 
553 1 0.000143929 -0.000500537 0.00125723 5e-05 -2.95384e-05 0.00446645 -0.0758837 0 0 -5.1365e-09 
382 1 0.000121998 -0.000393949 0.00120954 5e-05 0.00478109 0.0206207 -0.0919616 0 0 -5.1365e-09 
298 1 0.000278914 -0.000438538 0.00120533 5e-05 0.0139335 0.0280075 -0.0735441 0 0 -5.1365e-09 
188 1 0.000263806 -0.000466608 0.00132581 5e-05 -0.0186542 0.0320422 -0.0378053 0 0 -5.1365e-09 
237 1 -0.000430329 -0.000270443 0.00121953 5e-05 0.0259719 0.00256508 -0.0718781 0 0 -5.1365e-09 
336 1 -0.000347648 -0.000321462 0.00126416 5e-05 0.0349648 0.0307905 -0.0879734 0 0 -5.1365e-09 
368 1 -0.000240632 -0.000318685 0.0012856 5e-05 0.0211003 0.00820945 -0.086703 0 0 -5.1365e-09 
166 1 0.00045573 -0.000244085 0.00117292 5e-05 -0.00114836 0.0210249 -0.0847789 0 0 -5.1365e-09 
46 1 -0.000503165 -9.7575e-05 0.00122449 5e-05 0.00681304 -0.00343462 -0.0887401 0 0 -5.1365e-09 
263 1 -0.000369478 -0.000171469 0.00123941 5e-05 0.0443715 0.0171066 -0.0828252 0 0 -5.1365e-09 
430 1 -0.000489022 -0.000238852 0.00129898 5e-05 0.0209576 -0.0168738 -0.0811347 0 0 -5.1365e-09 
334 1 -0.000443981 -7.23897e-05 0.00130699 5e-05 0.00638273 0.0301552 -0.0894326 0 0 -5.1365e-09 
343 1 -0.000223445 -0.000168188 0.00117085 5e-05 0.0473909 0.0259002 -0.0768859 0 0 -5.1365e-09 
233 1 0.000337792 -7.66111e-05 0.00118214 5e-05 -0.0418953 0.00910234 -0.101957 0 0 -5.1365e-09 
27 1 0.000471721 -9.92903e-05 0.0011831 5e-05 -0.0146575 -0.00153202 -0.0774554 0 0 -5.1365e-09 
294 1 0.000474712 -0.000119022 0.00132066 5e-05 -0.0142544 0.00871204 -0.0593142 0 0 -5.1365e-09 
184 1 -0.000503861 1.14939e-05 0.00126624 5e-05 0.0296419 -0.00679002 -0.0583291 0 0 -5.1365e-09 
532 1 -0.000386761 -6.99149e-05 0.00114984 5e-05 0.0359278 -0.00797088 -0.104678 0 0 -5.1365e-09 
80 1 -0.000238538 -4.82006e-05 0.00132238 5e-05 -0.00177714 0.0203221 -0.0756137 0 0 -5.1365e-09 
360 1 -0.000365983 -3.2654e-05 0.00124853 5e-05 -0.0128993 -0.00131219 -0.0934429 0 0 -5.1365e-09 
465 1 0.000471574 1.57969e-05 0.00123037 5e-05 -0.0501991 -0.0164064 -0.0678178 0 0 -5.1365e-09 
267 1 -0.00047596 0.000147756 0.001262 5e-05 0.0283909 -0.0170223 -0.0577931 0 0 -5.1365e-09 
272 1 0.000238421 0.000120554 0.00123735 5e-05 -0.00653822 0.0048561 -0.0892144 0 0 -5.1365e-09 
21 1 0.000477664 0.000146917 0.00117859 5e-05 0.00619843 -0.00140045 -0.082045 0 0 -5.1365e-09 
515 1 0.000375602 0.000185192 0.00128708 5e-05 -0.0256047 -0.00550666 -0.0930801 0 0 -5.1365e-09 
44 1 0.000509714 0.00019062 0.00130718 5e-05 -0.0358584 -0.0194379 -0.0422843 0 0 -5.1365e-09 
210 1 -0.000444001 0.000270337 0.00128325 5e-05 0.0245038 0.00832525 -0.06485 0 0 -5.1365e-09 
134 1 0.000133045 0.000310024 0.00132256 5e-05 -0.0281402 -0.0060334 -0.0761066 0 0 -5.1365e-09 
72 1 0.000317784 0.000246062 0.00122974 5e-05 -0.0156783 -0.0109089 -0.0925658 0 0 -5.1365e-09 
419 1 0.000428962 0.000258071 0.00121472 5e-05 -0.00741286 -0.000875766 -0.0946754 0 0 -5.1365e-09 
273 1 -0.000338228 0.000386472 0.00127425 5e-05 0.0162816 -0.0640543 -0.0429452 0 0 -5.1365e-09 
435 1 -0.000240911 0.000477982 0.0012691 5e-05 0.0105444 -0.0281619 -0.0581392 0 0 -5.1365e-09 
494 1 -4.64725e-05 0.00039572 0.00119887 5e-05 -0.0117463 -0.039892 -0.0725907 0 0 -5.1365e-09 
391 1 0.000334364 0.000398835 0.00121716 5e-05 -0.0292862 -0.00468191 -0.0601315 0 0 -5.1365e-09 
450 1 0.000220837 0.000445814 0.00129089 5e-05 -0.0156952 0.0141281 -0.0775495 0 0 -5.1365e-09 
67 1 -0.000189856 -0.000538211 0.0014322 5e-05 0.0223876 0.0155482 -0.0319552 0 0 -5.1365e-09 
373 1 0.000184973 -0.000528467 0.00142682 5e-05 0.000430832 0.0166237 -0.0490844 0 0 -5.1365e-09 
399 1 -0.000406091 -0.000428215 0.00148441 5e-05 0.0202146 0.00317485 -0.0611693 0 0 -5.1365e-09 
516 1 -0.000323014 -0.000441105 0.00132672 5e-05 0.011643 -0.00938727 -0.0772691 0 0 -5.1365e-09 
14 1 0.00014736 -0.000499515 0.0015273 5e-05 0.0287334 0.00440545 -0.0183354 0 0 -5.1365e-09 
511 1 0.000216602 -0.000404044 0.00148404 5e-05 0.00724937 0.026665 -0.0520738 0 0 -5.1365e-09 
118 1 0.000363362 -0.000427097 0.00139241 5e-05 0.0203681 0.022287 -0.036333 0 0 -5.1365e-09 
545 1 0.000273881 -0.000503652 0.001473 5e-05 0.00150944 0.0186158 -0.0423108 0 0 -5.1365e-09 
417 1 -0.000440446 -0.000326819 0.00139284 5e-05 0.0192406 -0.0347031 -0.0766201 0 0 -5.1365e-09 
112 1 -0.000331713 -0.00035011 0.00137106 5e-05 0.00751115 -0.0115994 -0.0537544 0 0 -5.1365e-09 
18 1 -0.000345562 -0.000245147 0.00135583 5e-05 0.00736872 0.0011074 -0.0758618 0 0 -5.1365e-09 
395 1 -0.000354954 -0.000305082 0.0014681 5e-05 -0.00780409 -0.0044756 -0.0724895 0 0 -5.1365e-09 
99 1 -0.000211369 -0.000331885 0.00144684 5e-05 -0.00605761 -0.00379511 -0.0513206 0 0 -5.1365e-09 
131 1 0.000169144 -0.000309376 0.00138134 5e-05 -0.00678974 0.0201539 -0.0590011 0 0 -5.1365e-09 
236 1 0.000298827 -0.000326808 0.00138194 5e-05 0.0220348 0.0288902 -0.0585287 0 0 -5.1365e-09 
255 1 0.000460045 -0.000359869 0.0015306 5e-05 0.00809044 0.00110072 -0.0157249 0 0 -5.1365e-09 
31 1 -0.000524131 -0.000140389 0.0013614 5e-05 0.0293687 -0.0112732 -0.0400989 0 0 -5.1365e-09 
333 1 -0.000455261 -0.000109604 0.00143014 5e-05 0.0449341 -0.00146811 -0.0506837 0 0 -5.1365e-09 
470 1 -0.000489051 -0.000235751 0.00144109 5e-05 -0.0109142 -0.00776721 -0.0605621 0 0 -5.1365e-09 
63 1 -0.000374702 -0.000147563 0.00133863 5e-05 -0.000168193 0.0107792 -0.0746333 0 0 -5.1365e-09 
270 1 -0.00032094 -9.57967e-05 0.00148643 5e-05 -0.00081683 -0.0120628 -0.0580446 0 0 -5.1365e-09 
43 1 -0.000165173 -0.000226676 0.0013596 5e-05 0.0102926 -0.00393755 -0.0652156 0 0 -5.1365e-09 
338 1 -0.000555285 -7.16519e-06 0.00142806 5e-05 0.0310475 -0.00887817 -0.0394187 0 0 -5.1365e-09 
345 1 0.000379458 -8.76899e-06 0.0013374 5e-05 -0.00197148 -0.0204815 -0.0828066 0 0 -5.1365e-09 
77 1 0.000296408 1.80773e-05 0.00150092 5e-05 -0.0186214 0.00770742 -0.0309097 0 0 -5.1365e-09 
143 1 0.000480485 -1.03964e-05 0.00142167 5e-05 -0.0204472 -0.00431821 -0.0686081 0 0 -5.1365e-09 
407 1 0.000555834 5.37279e-05 0.00136979 5e-05 -0.0113373 0.0196024 -0.0699475 0 0 -5.1365e-09 
76 1 -0.000386276 0.000112685 0.0013396 5e-05 0.0392866 0.0366839 -0.08183 0 0 -5.1365e-09 
409 1 -0.000517854 8.20456e-05 0.00138696 5e-05 0.0137091 -0.0313311 -0.0660242 0 0 -5.1365e-09 
161 1 0.000189436 0.000228377 0.00148202 5e-05 0.00181045 0.00100061 -0.0400948 0 0 -5.1365e-09 
458 1 0.000280107 0.000167201 0.00132392 5e-05 -0.00703763 0.0110423 -0.098066 0 0 -5.1365e-09 
568 1 0.000367713 9.88113e-05 0.00141739 5e-05 -0.0222125 -0.0191427 -0.0760594 0 0 -5.1365e-09 
189 1 0.00049757 8.53236e-05 0.00145059 5e-05 -0.0160175 0.0108801 -0.0763638 0 0 -5.1365e-09 
466 1 0.000414331 0.000198802 0.00141782 5e-05 -0.0121852 -0.0177845 -0.078116 0 0 -5.1365e-09 
280 1 -0.000288469 0.00034421 0.00141505 5e-05 1.4403e-05 -0.0384186 -0.0403876 0 0 -5.1365e-09 
66 1 0.000245328 0.000273852 0.00131944 5e-05 -0.00509093 0.0114902 -0.0864971 0 0 -5.1365e-09 
120 1 0.000355056 0.0002878 0.00136052 5e-05 -0.0212053 -0.025695 -0.085431 0 0 -5.1365e-09 
164 1 0.000307983 0.000232939 0.00146798 5e-05 -0.00184417 -0.0018224 -0.0723453 0 0 -5.1365e-09 
418 1 0.00041533 0.000368333 0.00135169 5e-05 -0.0121883 0.00411391 -0.042241 0 0 -5.1365e-09 
16 1 0.000459675 0.000266019 0.00135627 5e-05 -0.00711891 -0.00884323 -0.0774275 0 0 -5.1365e-09 
505 1 -0.000441917 0.000392889 0.00148316 5e-05 0.000321667 0.000244405 -0.000700856 1.40717e-08 -3.75562e-08 6.69237e-08 
223 1 -0.000347142 0.000415912 0.00137524 5e-05 -0.0170653 -0.0115587 -0.0329417 0 0 -5.1365e-09 
540 1 -0.000253975 0.000527827 0.00147712 5e-05 -0.00772847 -0.00954211 -0.0373112 0 0 -5.1365e-09 
522 1 -0.000315425 0.000419121 0.00147752 5e-05 -0.0100058 -0.0164374 -0.051911 0 0 -5.1365e-09 
56 1 -0.000194397 0.000423176 0.00140509 5e-05 -0.0113656 -0.0297823 -0.0604385 0 0 -5.1365e-09 
71 1 0.000321602 0.00040204 0.00132483 5e-05 -0.00608185 0.0092313 -0.0830209 0 0 -5.1365e-09 
265 1 0.000294163 0.000467346 0.00141125 5e-05 -0.00935291 -0.00227682 -0.0675133 0 0 -5.1365e-09 
566 1 0.000284094 0.00040607 0.00149364 5e-05 0.0168621 0.00217577 -0.0500406 0 0 -5.1365e-09 
173 1 -0.000152108 0.000540647 0.00139877 5e-05 0.0108212 -0.0082476 -0.0360834 0 0 -5.1365e-09 
571 1 -2.98777e-05 0.000580646 0.0014723 5e-05 -0.0219972 -0.00768694 -0.0274767 0 0 -5.1365e-09 
106 1 7.7725e-05 0.000557456 0.0014594 5e-05 -0.00482888 -0.0176017 -0.0377484 0 0 -5.1365e-09 
7 1 0.000204049 0.000540985 0.00144477 5e-05 -0.016044 -0.0076908 -0.0503539 0 0 -5.1365e-09 
533 1 -0.000261836 -0.000564254 0.00168074 5e-05 -0.00480435 -0.00110478 -0.016694 0 0 -5.1365e-09 
556 1 -0.000151352 -0.000588485 0.00158709 5e-05 0.000680371 0.00439042 -0.0187465 0 0 -5.1365e-09 
200 1 -4.17655e-05 -0.000610743 0.00161858 5e-05 -0.00338756 -0.00208227 0.0110977 0 0 -5.1365e-09 
569 1 8.23554e-05 -0.000606236 0.00160809 5e-05 0.00685098 0.012115 -0.0137721 0 0 -5.1365e-09 
375 1 1.34959e-05 -0.000545899 0.0015491 5e-05 0.0142857 0.012852 -0.00625251 0 0 -5.1365e-09 
452 1 0.000159818 -0.000541195 0.00161925 5e-05 0.0128003 0.00926828 -0.0146509 0 0 -5.1365e-09 
341 1 0.00026844 -0.000563985 0.00163819 5e-05 0.00109025 0.035957 0.00566414 0 0 -5.1365e-09 
286 1 -0.000319295 -0.000394052 0.0015429 5e-05 -0.00743883 0.00805657 -0.0565491 0 0 -5.1365e-09 
416 1 -0.000339719 -0.000490525 0.0016208 5e-05 0.0162071 0.015094 -0.0380985 0 0 -5.1365e-09 
2 1 -0.000260973 -0.000422487 0.00167092 5e-05 -0.0133341 0.00795404 -0.0210017 0 0 -5.1365e-09 
335 1 -0.000195325 -0.000439822 0.0015264 5e-05 -0.0133 0.0097782 -0.0132685 0 0 -5.1365e-09 
85 1 -0.000208106 -0.000498812 0.00161148 5e-05 3.09893e-06 0.00784432 -0.0170955 0 0 -5.1365e-09 
284 1 -8.09247e-05 -0.000518923 0.00160928 5e-05 0.0017195 -0.0101614 -0.0101775 0 0 -5.1365e-09 
167 1 -0.000161122 -0.000387649 0.00161422 5e-05 -0.00377919 0.00799634 -0.0160749 0 0 -5.1365e-09 
523 1 -3.13415e-05 -0.000454322 0.00155001 5e-05 0.00880884 -0.00491946 -0.00511252 0 0 -5.1365e-09 