ITEM: TIMESTEP
27000
ITEM: NUMBER OF ATOMS
486
ITEM: BOX BOUNDS ff ff ff
-0.001 0.001
-0.001 0.001
0 0.004
ITEM: ATOMS id type x y z radius vx vy vz fx fy fz 
61 1 -0.000205808 -0.000113504 -1.09391e-05 5e-05 0.0413604 -0.0218394 -0.137885 0 0 -5.1365e-09 
239 1 -4.46934e-05 -0.000217158 -3.65485e-05 5e-05 -0.0261675 -0.0256937 -0.153365 0 0 -5.1365e-09 
276 1 -0.000157491 0.000577621 0.00183883 5e-05 0.00595015 0.00262975 -0.0478696 0 0 -5.1365e-09 
402 1 8.0097e-05 -0.000214484 -4.06852e-05 5e-05 0.0186977 0.0113168 -0.134001 0 0 -5.1365e-09 
141 1 0.000133705 -7.54096e-05 -4.65328e-06 5e-05 -0.0254599 0.0135605 -0.151106 0 0 -5.1365e-09 
323 1 0.00031851 -0.000454481 0.00183326 5e-05 -0.000339262 0.0184652 -0.055111 0 0 -5.1365e-09 
123 1 -0.000232462 -1.00488e-05 -2.79067e-05 5e-05 0.0347485 0.00564271 -0.0955181 0 0 -5.1365e-09 
47 1 -8.80481e-05 2.65978e-05 2.57384e-05 5e-05 -0.0123207 -0.031447 -0.127445 0 0 -5.1365e-09 
420 1 3.52569e-05 -0.00046293 0.00182443 5e-05 0.00266742 0.011229 -0.0120159 0 0 -5.1365e-09 
449 1 2.85078e-07 -8.91033e-05 -5.11517e-05 5e-05 -0.0135072 -0.0678564 -0.140378 0 0 -5.1365e-09 
211 1 -6.67493e-05 0.000588719 0.00171527 5e-05 -0.0210231 0.0268924 -0.0153538 0 0 -5.1365e-09 
542 1 -2.7011e-05 0.000444044 0.00176219 5e-05 -0.000926542 0.0119831 -0.0252932 0 0 -5.1365e-09 
213 1 9.59251e-07 2.61941e-05 -3.92313e-05 5e-05 -0.0123663 -0.00631305 -0.143987 0 0 -5.1365e-09 
110 1 5.91397e-05 0.000393004 0.00171485 5e-05 -0.00942051 0.00310201 -0.0220471 0 0 -5.1365e-09 
274 1 0.000227748 -2.76092e-05 6.71163e-06 5e-05 -0.0116353 -0.0151756 -0.124201 0 0 -5.1365e-09 
197 1 -0.000299619 0.000493493 0.00176107 5e-05 -0.0170798 0.00683484 -0.0356636 0 0 -5.1365e-09 
487 1 0.000392979 0.0003296 0.00168783 5e-05 0.00901034 -0.0207413 -0.0727407 0 0 -5.1365e-09 
358 1 6.60093e-05 0.0001145 -4.19513e-05 5e-05 -0.000596192 -0.0228552 -0.122803 0 0 -5.1365e-09 
50 1 0.000128077 0.00021149 -4.27452e-05 5e-05 -0.00373864 0.0146598 -0.129349 0 0 -5.1365e-09 
497 1 7.24919e-05 0.00019067 6.53076e-05 5e-05 -0.0548394 -0.00908601 -0.0869432 0 0 -5.1365e-09 
457 1 0.000182297 0.000116905 -2.14039e-05 5e-05 -0.0375907 -0.0218339 -0.134772 0 0 -5.1365e-09 
365 1 -6.7449e-05 0.000372887 0.00168175 5e-05 -0.00716782 -0.0027014 -0.00651688 0 0 -5.1365e-09 
160 1 -0.000137967 -0.000225917 0.000106263 5e-05 0.0406511 0.0188575 -0.0694951 0 0 -5.1365e-09 
489 1 -3.74144e-05 -0.000254605 8.34412e-05 5e-05 0.0200088 0.0213466 -0.113538 0 0 -5.1365e-09 
75 1 -0.000106412 -0.000117023 2.98541e-05 5e-05 0.0317582 0.0206686 -0.170652 0 0 -5.1365e-09 
6 1 -0.000208631 -0.00015273 8.53215e-05 5e-05 0.0137331 0.00937357 -0.0803134 0 0 -5.1365e-09 
401 1 1.04436e-05 -0.000155354 2.70238e-05 5e-05 0.0170169 0.0296361 -0.142495 0 0 -5.1365e-09 
196 1 0.000164142 -0.000190636 4.16857e-05 5e-05 -0.0516578 0.0153176 -0.126622 0 0 -5.1365e-09 
291 1 0.000192649 -0.000174742 0.000140087 5e-05 -0.035758 0.00237764 -0.0778087 0 0 -5.1365e-09 
281 1 6.59558e-05 -0.000211389 0.000136185 5e-05 -0.016571 0.0100939 -0.15158 0 0 -5.1365e-09 
538 1 7.98008e-05 -0.000101631 7.9192e-05 5e-05 0.0371769 0.0444375 -0.082815 0 0 -5.1365e-09 
121 1 0.000232602 -0.000109013 7.33814e-05 5e-05 0.0104643 -0.00128587 -0.124853 0 0 -5.1365e-09 
421 1 -0.00021222 -4.83866e-05 0.000105929 5e-05 0.0182137 -0.0123316 -0.0815085 0 0 -5.1365e-09 
95 1 -8.69229e-05 3.34761e-05 0.000128619 5e-05 0.0136312 -0.011895 -0.124612 0 0 -5.1365e-09 
320 1 -0.000211235 4.00706e-05 0.000202866 5e-05 0.0104556 -0.00787256 -0.103383 0 0 -5.1365e-09 
324 1 1.31912e-05 -2.93623e-05 5.61057e-05 5e-05 0.0077533 -0.0128213 -0.106416 0 0 -5.1365e-09 
507 1 1.93045e-05 9.04815e-05 9.39779e-05 5e-05 -0.0123589 0.0346388 -0.168409 0 0 -5.1365e-09 
170 1 0.000147297 3.18622e-05 9.01021e-05 5e-05 0.0135214 -0.00618641 -0.102241 0 0 -5.1365e-09 
340 1 0.000242693 -1.02225e-05 0.000122114 5e-05 -0.00335673 0.0232296 -0.0899784 0 0 -5.1365e-09 
537 1 -0.000153522 0.000200208 4.0799e-05 5e-05 0.0144545 -0.0264107 -0.155739 3.82263e-06 -3.53133e-06 3.67847e-06 
389 1 -2.3094e-05 0.000137267 1.24899e-05 5e-05 0.0107725 -0.00230375 -0.153113 0 0 -5.1365e-09 
560 1 -5.37136e-05 0.000228453 0.00010366 5e-05 0.0382895 0.0169719 -0.155265 0 0 -5.1365e-09 
454 1 0.000134987 0.000115492 0.000158672 5e-05 0.00788152 0.0045343 -0.116922 0 0 -5.1365e-09 
261 1 0.000214491 0.000129315 7.88298e-05 5e-05 -0.0322435 0.00866999 -0.0994203 0 0 -5.1365e-09 
287 1 0.000238951 7.5792e-05 0.000174332 5e-05 0.0252074 -0.00671321 -0.1129 0 0 -5.1365e-09 
441 1 4.26286e-05 0.000274305 0.000150917 5e-05 -0.036173 0.0409789 -0.0798722 0 0 -5.1365e-09 
256 1 -3.90679e-05 0.000284385 0.000240098 5e-05 -0.0514816 -0.00833063 -0.0866784 0 0 -5.1365e-09 
342 1 -8.46667e-05 -0.000263714 0.000249697 5e-05 0.0338988 0.00525019 -0.100568 0 0 -5.1365e-09 
473 1 8.74977e-05 -0.000290812 0.000260168 5e-05 0.0698796 -0.0149499 -0.121746 0 0 -5.1365e-09 
168 1 1.80847e-05 -0.000251722 0.000324224 5e-05 0.0430921 0.0101595 -0.0917881 0 0 -5.1365e-09 
387 1 -0.000186187 -0.00017226 0.000253885 5e-05 0.0217771 -0.0239712 -0.157858 0 0 -5.1365e-09 
165 1 -3.69254e-05 -0.000151629 0.000267164 5e-05 0.032944 0.034555 -0.173259 0 0 -5.1365e-09 
35 1 0.000116403 -9.96085e-05 0.000207282 5e-05 -0.0637016 -0.0387179 -0.143469 0 0 -5.1365e-09 
496 1 0.000196292 -7.00007e-05 0.00027462 5e-05 -0.0129881 0.0253678 -0.1582 0 0 -5.1365e-09 
26 1 -0.000276484 -6.01542e-05 0.000229934 5e-05 0.0398146 -0.00759506 -0.149763 0 0 -5.1365e-09 
214 1 -0.000139513 -8.90489e-05 0.000210547 5e-05 0.0464633 -0.0737268 -0.149011 0 0 -5.1365e-09 
51 1 -4.40362e-05 5.89251e-06 0.000223761 5e-05 -0.00513136 0.00863781 -0.107864 0 0 -5.1365e-09 
305 1 5.95055e-05 2.30952e-05 0.00022728 5e-05 -0.0156489 0.0052305 -0.158056 0 0 -5.1365e-09 
330 1 0.000154053 -8.11399e-06 0.00019051 5e-05 -0.000110613 -0.00610523 -0.109837 0 0 -5.1365e-09 
447 1 0.000276746 6.83916e-05 0.000268285 5e-05 0.00203971 -0.0149878 -0.0981613 0 0 -5.1365e-09 
226 1 -0.000302785 8.47333e-05 0.000327599 5e-05 0.0422158 -0.0068482 -0.0977877 0 0 -5.1365e-09 
224 1 -0.000214531 0.000166316 0.000294462 5e-05 -0.0134737 -0.0429258 -0.0666963 0 0 -5.1365e-09 
109 1 -0.000178671 6.87911e-05 0.000334917 5e-05 0.0553138 -0.0132245 -0.11192 0 0 -5.1365e-09 
347 1 -0.000108775 0.000140896 0.00016236 5e-05 -0.00214088 0.0199389 -0.168312 0 0 -5.1365e-09 
140 1 -0.000125475 0.000217548 0.000257345 5e-05 -0.0191413 -0.00672716 -0.114346 0 0 -5.1365e-09 
504 1 -1.70639e-05 0.00011018 0.000200345 5e-05 -0.0285142 -0.0341789 -0.127567 0 0 -5.1365e-09 
181 1 -4.15551e-05 0.000107639 0.000329536 5e-05 -0.0168051 -0.0411998 -0.131366 0 0 -5.1365e-09 
225 1 1.95821e-05 0.000218262 0.000328973 5e-05 0.000912706 -0.00819449 -0.0927202 -6.15682e-07 -8.22838e-07 3.01172e-07 
346 1 0.000147942 0.000215979 0.000197386 5e-05 0.0036188 0.0333106 -0.109982 0 0 -5.1365e-09 
479 1 6.7722e-05 0.000122527 0.000280186 5e-05 -0.0154164 -0.0163693 -0.13098 0 0 -5.1365e-09 
84 1 0.000198696 0.000132428 0.000312263 5e-05 -0.0568089 0.0321822 -0.136474 0 0 -5.1365e-09 
476 1 -7.15118e-05 0.000303518 0.000348425 5e-05 -0.0347871 0.00344409 -0.0658593 0 0 -5.1365e-09 
74 1 6.65447e-05 0.000274249 0.000260775 5e-05 -0.0219814 -0.0286956 -0.0732156 6.15682e-07 8.22838e-07 -3.11445e-07 
227 1 -0.000160617 -0.000224791 0.000395548 5e-05 0.0163333 0.0153774 -0.126306 0 0 -5.1365e-09 
204 1 -2.26976e-05 -0.000294292 0.000426345 5e-05 0.00136107 0.0178256 -0.133032 0 0 -5.1365e-09 
42 1 0.000215586 -0.00022883 0.000439518 5e-05 -0.042628 0.054455 -0.0161773 -1.69846e-06 4.83129e-06 9.38498e-07 
429 1 -0.000257137 -0.000168112 0.000406276 5e-05 0.0313727 0.0218466 -0.117226 0 0 -5.1365e-09 
45 1 -0.000184502 -9.95521e-05 0.000322765 5e-05 -0.0257715 -0.000151304 -0.158893 0 0 -5.1365e-09 
103 1 -0.000166827 -8.84113e-05 0.000474545 5e-05 0.0342283 0.0143074 -0.141106 0 0 -5.1365e-09 
312 1 -9.72977e-05 -0.000172637 0.000462105 5e-05 0.0479014 0.0124724 -0.10855 0 0 -5.1365e-09 
455 1 9.27093e-06 -0.000161455 0.000379366 5e-05 0.0209792 0.0410691 -0.121095 0 0 -5.1365e-09 
317 1 8.36411e-05 -0.00016548 0.000448032 5e-05 -0.00108139 0.0126322 -0.0879875 0 0 -5.1365e-09 
159 1 0.000289068 -0.000153836 0.000455351 5e-05 -0.0274234 0.0165296 -0.101697 0 0 -5.1365e-09 
438 1 -0.000252969 -1.36898e-05 0.00033437 5e-05 0.0203015 -0.0396546 -0.142134 0 0 -5.1365e-09 
506 1 -0.000217859 9.11253e-06 0.000442232 5e-05 0.0299385 0.0436373 -0.148335 0 0 -5.1365e-09 
228 1 -7.83565e-05 -6.73084e-05 0.000315692 5e-05 0.0249827 0.0282739 -0.132948 0 0 -5.1365e-09 
431 1 -9.55761e-05 1.61126e-05 0.000441953 5e-05 0.0119995 0.0458104 -0.163615 0 0 -5.1365e-09 
3 1 3.53108e-05 -4.85935e-05 0.00035372 5e-05 0.0115265 -0.00904453 -0.132329 0 0 -5.1365e-09 
155 1 8.30762e-06 -2.33677e-05 0.00046811 5e-05 0.000293799 0.00439394 -0.151026 0 0 -5.1365e-09 
325 1 0.000119229 -7.04147e-05 0.000410491 5e-05 0.00628619 0.0435912 -0.110475 0 0 -5.1365e-09 
100 1 3.31024e-05 5.45827e-05 0.000397153 5e-05 -0.0857608 0.0200371 -0.145513 0 0 -5.1365e-09 
195 1 0.000213209 0.000104201 0.000493256 5e-05 -0.00702753 0.0310502 -0.12262 0 0 -5.1365e-09 
266 1 0.000220191 4.82247e-05 0.00039683 5e-05 -0.0280951 -0.0224677 -0.117204 0 0 -5.1365e-09 
34 1 9.78273e-05 0.000176321 0.000422759 5e-05 -0.0486303 0.00913381 -0.109498 0 0 -5.1365e-09 
282 1 0.000239489 0.000224369 0.000481756 5e-05 -0.0527525 -0.0229666 -0.092322 0 0 -5.1365e-09 
547 1 -1.48601e-05 0.000275926 0.00047687 5e-05 -0.0530324 0.00386647 -0.148762 0 0 -5.1365e-09 
244 1 0.000167175 0.000262685 0.000419799 5e-05 0.00279463 0.0265421 -0.0888652 0 0 -5.1365e-09 
9 1 3.09441e-05 -0.000354256 0.00052026 5e-05 0.0309419 0.0431218 -0.13156 0 0 -5.1365e-09 
514 1 -0.000243247 -0.000280808 0.000629737 5e-05 0.0581171 0.00110843 -0.0668671 0 0 -5.1365e-09 
191 1 -0.000179257 -0.000249396 0.000492072 5e-05 0.000294425 -0.0166568 -0.127325 0 0 -5.1365e-09 
400 1 -0.000151381 -0.000323682 0.000655289 5e-05 0.034447 -0.00349093 -0.101144 0 0 -5.1365e-09 
536 1 1.7363e-05 -0.000244739 0.00050376 5e-05 0.0342896 0.0879482 -0.101237 0 0 -5.1365e-09 
107 1 0.000117881 -0.000246137 0.000552212 5e-05 -0.0104231 0.05214 -0.105698 0 0 -5.1365e-09 
337 1 -0.000270363 -0.00020544 0.000523901 5e-05 0.0497262 0.0289433 -0.0810955 0 0 -5.1365e-09 
355 1 -0.000270231 -0.000108481 0.000581436 5e-05 0.0499231 0.0202491 -0.104621 0 0 -5.1365e-09 
295 1 -0.000152483 -0.000219473 0.000643074 5e-05 0.0557803 0.00755003 -0.127733 0 0 -5.1365e-09 
397 1 -0.000153569 -0.000138636 0.000560168 5e-05 0.0364019 -0.00283054 -0.128514 0 0 -5.1365e-09 
296 1 0.000194374 -0.000140064 0.000617765 5e-05 -0.020387 0.0290202 -0.104321 0 0 -5.1365e-09 
467 1 0.000223278 -8.75658e-05 0.000498273 5e-05 -0.051505 0.0349801 -0.130694 0 0 -5.1365e-09 
258 1 0.000328363 -0.000118652 0.000616908 5e-05 -0.023577 0.00886981 -0.116764 0 0 -5.1365e-09 
351 1 -0.000364682 6.2031e-05 0.000575303 5e-05 0.0167496 -0.00701556 -0.132463 0 0 -5.1365e-09 
329 1 -0.000134778 -2.44166e-05 0.000549344 5e-05 0.00715645 0.0282302 -0.100191 0 0 -5.1365e-09 
174 1 -0.000163855 5.35842e-05 0.000610874 5e-05 0.0169697 -0.0169619 -0.16697 0 0 -5.1365e-09 
304 1 0.000125202 2.50717e-05 0.00055026 5e-05 -0.020257 -0.0444117 -0.130186 0 0 -5.1365e-09 
208 1 0.000353574 8.71249e-06 0.000493675 5e-05 -0.0307313 0.00045237 -0.137217 0 0 -5.1365e-09 
512 1 0.000267305 1.93089e-05 0.000545328 5e-05 -0.0251282 0.00468922 -0.155263 0 0 -5.1365e-09 
297 1 -0.000220547 0.000205991 0.000612238 5e-05 0.0459394 0.00598592 -0.108099 0 0 -5.1365e-09 
135 1 9.06222e-05 0.000110768 0.000502798 5e-05 -0.0534163 -0.0383246 -0.116285 0 0 -5.1365e-09 
205 1 0.000173733 0.000125402 0.00058463 5e-05 -0.0439733 0.0135095 -0.138613 0 0 -5.1365e-09 
11 1 0.000295019 0.000139825 0.000569719 5e-05 0.00281033 0.00772802 -0.118394 0 0 -5.1365e-09 
444 1 0.00026226 0.000236714 0.000602899 5e-05 -0.0275831 0.0132897 -0.132483 0 0 -5.1365e-09 
502 1 -8.20163e-05 0.000326828 0.000537293 5e-05 -0.0333445 -0.0208796 -0.0876082 0 0 -5.1365e-09 
218 1 -8.10296e-05 0.000323391 0.000651809 5e-05 -0.0446497 -0.0631318 -0.0935149 0 0 -5.1365e-09 
413 1 6.87222e-05 0.000335242 0.00054428 5e-05 -0.0557572 -0.0164737 -0.0772312 0 0 -5.1365e-09 
113 1 -6.01906e-05 -0.000370604 0.000737114 5e-05 0.0589456 0.0142778 -0.0693231 0 0 -5.1365e-09 
29 1 -0.000272389 -0.000279426 0.000782778 5e-05 0.0233237 0.0125674 -0.114371 0 0 -5.1365e-09 
68 1 -0.000115209 -0.000353779 0.000828987 5e-05 0.0630908 -0.00162042 -0.0816627 0 0 -5.1365e-09 
382 1 0.000141123 -0.000311466 0.000763218 5e-05 0.00478109 0.0206207 -0.131202 0 0 -5.1365e-09 
83 1 -0.000345458 -0.000192719 0.000766064 5e-05 0.0325308 -0.00236906 -0.085961 0 0 -5.1365e-09 
532 1 -0.000263364 -0.000146219 0.000697672 5e-05 0.00874177 0.0202294 -0.12297 0 0 -5.1365e-09 
343 1 -6.94336e-05 -0.000112493 0.000828108 5e-05 0.0343975 0.0083919 -0.100306 0 0 -5.1365e-09 
316 1 9.6333e-05 -8.97154e-05 0.000782593 5e-05 -0.0466211 0.0211866 -0.107778 0 0 -5.1365e-09 
215 1 0.000299852 -0.000153867 0.000745676 5e-05 -0.0139524 0.00423506 -0.117771 0 0 -5.1365e-09 
27 1 0.000399918 -7.24206e-05 0.000802909 5e-05 -0.0452685 0.0180318 -0.0837049 0 0 -5.1365e-09 
339 1 -0.000389217 6.54797e-05 0.000819009 5e-05 0.0244907 -0.00643847 -0.103734 0 0 -5.1365e-09 
111 1 -0.00036879 -4.738e-05 0.000693596 5e-05 0.013015 -0.00335261 -0.134508 0 0 -5.1365e-09 
179 1 -0.000238216 -1.10623e-06 0.000667106 5e-05 0.0120778 -0.0186271 -0.124253 0 0 -5.1365e-09 
360 1 -0.00030973 -8.13735e-06 0.000804142 5e-05 0.0342325 0.00925546 -0.113935 0 0 -5.1365e-09 
82 1 -0.000150858 -0.000110091 0.000729798 5e-05 0.0226531 -0.0462805 -0.0945516 0 0 -5.1365e-09 
233 1 0.000193193 -1.4451e-05 0.000671319 5e-05 -0.0311383 0.0211555 -0.152673 0 0 -5.1365e-09 
194 1 0.000420732 2.46294e-05 0.000820399 5e-05 -0.018391 -0.013167 -0.0950027 0 0 -5.1365e-09 
408 1 -0.000347253 0.000104301 0.000709146 5e-05 0.0355583 -0.0451902 -0.0965225 0 0 -5.1365e-09 
394 1 -0.000135127 0.000161795 0.000708103 5e-05 0.041516 9.95342e-05 -0.0775753 0 0 -5.1365e-09 
371 1 0.000113351 0.000212179 0.000660247 5e-05 -0.0298536 0.00115212 -0.137219 0 0 -5.1365e-09 
175 1 0.000334849 0.000178996 0.000733679 5e-05 -0.0128647 -0.0137037 -0.114185 0 0 -5.1365e-09 
72 1 0.000246373 0.000219308 0.000765964 5e-05 -0.0458447 -0.0438565 -0.125852 0 0 -5.1365e-09 
88 1 -0.00022281 0.000269379 0.000825792 5e-05 0.000313145 -0.042889 -0.102628 0 0 -5.1365e-09 
290 1 0.00025649 0.000321449 0.000770572 5e-05 -0.0359441 0.0105053 -0.0599266 0 0 -5.1365e-09 
548 1 -6.36682e-05 0.000399898 0.000777447 5e-05 -0.00349288 -0.0205735 -0.104272 0 0 -5.1365e-09 
207 1 5.27403e-05 -0.00040673 0.000984239 5e-05 0.00118351 0.0297266 -0.0917869 0 0 -5.1365e-09 
553 1 0.000181294 -0.000363596 0.000936564 5e-05 0.00814765 0.0393323 -0.0960173 0 0 -5.1365e-09 
430 1 -0.000392568 -0.000228761 0.00100931 5e-05 0.0214323 0.015791 -0.0576582 0 0 -5.1365e-09 
237 1 -0.000352353 -0.000233123 0.000861137 5e-05 0.0391407 0.0278598 -0.0818908 0 0 -5.1365e-09 
336 1 -0.000185902 -0.000255168 0.000847579 5e-05 0.016128 0.037664 -0.100183 0 0 -5.1365e-09 
368 1 -5.88737e-05 -0.000294228 0.000911377 5e-05 0.0565361 0.00216474 -0.106904 0 0 -5.1365e-09 
298 1 0.000272244 -0.000270826 0.000901602 5e-05 -0.0031508 0.0432521 -0.0939168 0 0 -5.1365e-09 
46 1 -0.000399754 -0.00010038 0.000857525 5e-05 0.0271699 -0.00137572 -0.110142 0 0 -5.1365e-09 
263 1 -0.000200548 -9.60649e-05 0.00092908 5e-05 0.0383109 0.0330885 -0.0887813 0 0 -5.1365e-09 
63 1 -0.000353087 -0.000151181 0.00093157 5e-05 0.0130549 0.00831316 -0.124811 0 0 -5.1365e-09 
345 1 0.000303538 -0.000101077 0.00098293 5e-05 -0.0274141 -0.0228003 -0.102461 0 0 -5.1365e-09 
166 1 0.000373985 -0.000184697 0.000857186 5e-05 -0.0298764 0.00971555 -0.0844571 0 0 -5.1365e-09 
334 1 -0.000374801 -5.60704e-05 0.000965645 5e-05 0.0346929 -0.0122004 -0.100427 0 0 -5.1365e-09 
184 1 -0.000446983 5.94872e-05 0.000974609 5e-05 0.0349593 0.00652771 -0.0806729 0 0 -5.1365e-09 
80 1 -0.000242852 2.22191e-05 0.000937655 5e-05 0.0084046 -0.0192818 -0.128679 0 0 -5.1365e-09 
465 1 0.000268854 -3.38258e-05 0.000850439 5e-05 -0.0571962 -0.0108441 -0.115296 0 0 -5.1365e-09 
267 1 -0.000358972 0.000122091 0.000937193 5e-05 0.0282425 -0.000550493 -0.10624 0 0 -5.1365e-09 
76 1 -0.000236477 0.000132372 0.000936755 5e-05 0.0369643 0.0196262 -0.10463 0 0 -5.1365e-09 
272 1 0.000198982 0.000104678 0.000811019 5e-05 -0.0161148 -0.0205765 -0.121964 0 0 -5.1365e-09 
458 1 0.000177091 0.000160235 0.000903458 5e-05 -0.0346838 -0.0175343 -0.118881 0 0 -5.1365e-09 
515 1 0.000246444 8.26953e-05 0.000900879 5e-05 -0.0395707 -0.0368702 -0.104834 0 0 -5.1365e-09 
120 1 0.00027755 0.000194366 0.000945466 5e-05 -0.0169023 -0.0201969 -0.121639 0 0 -5.1365e-09 
21 1 0.000384626 0.000107063 0.000891025 5e-05 -0.0426786 0.000833975 -0.0990993 0 0 -5.1365e-09 
419 1 0.000370289 0.000209625 0.000857767 5e-05 -0.0329464 -0.0267723 -0.0793579 0 0 -5.1365e-09 
44 1 0.000429203 0.000152884 0.000973012 5e-05 -0.0186998 0.00627593 -0.0911708 0 0 -5.1365e-09 
210 1 -0.000364161 0.000229547 0.000998348 5e-05 0.0250876 -0.0285621 -0.0729156 0 0 -5.1365e-09 
494 1 -9.34575e-05 0.000236152 0.000830024 5e-05 -0.0117463 -0.039892 -0.111831 0 0 -5.1365e-09 
134 1 2.04846e-05 0.00028589 0.000939655 5e-05 -0.0281402 -0.0060334 -0.115347 0 0 -5.1365e-09 
66 1 0.000173368 0.000300626 0.00093231 5e-05 -0.0615148 -0.0509482 -0.082415 0 0 -5.1365e-09 
391 1 0.000221367 0.000369555 0.000876943 5e-05 -0.0321854 -0.0249667 -0.0635393 0 0 -5.1365e-09 
435 1 -0.00019104 0.00038201 0.000959224 5e-05 0.0228494 -0.00147009 -0.0955437 0 0 -5.1365e-09 
450 1 0.000120669 0.000398938 0.00099744 5e-05 -0.0401779 -0.024089 -0.0781463 0 0 -5.1365e-09 
516 1 -0.000203991 -0.000433986 0.00105371 5e-05 0.039308 0.00505439 -0.0772997 0 0 -5.1365e-09 
283 1 -0.00011923 -0.000448683 0.000997407 5e-05 0.00775486 0.00975003 -0.100271 0 0 -5.1365e-09 
18 1 -0.000273289 -0.000221538 0.000994322 5e-05 0.0327007 0.0111787 -0.108926 0 0 -5.1365e-09 
417 1 -0.000343189 -0.000344686 0.00112618 5e-05 0.0350864 0.0234551 -0.0582552 0 0 -5.1365e-09 
112 1 -0.000190473 -0.000334522 0.00101035 5e-05 0.0416894 0.00204444 -0.112775 0 0 -5.1365e-09 
43 1 -0.000124003 -0.000242426 0.00102025 5e-05 0.0102926 -0.00393755 -0.104456 0 0 -5.1365e-09 
188 1 0.000189189 -0.000338439 0.00109611 5e-05 -0.0186542 0.0320422 -0.0770453 0 0 -5.1365e-09 
131 1 0.000141986 -0.00022876 0.00106685 5e-05 -0.00678974 0.0201539 -0.0982411 0 0 -5.1365e-09 
236 1 0.000386966 -0.000211248 0.00106935 5e-05 0.0220348 0.0288902 -0.0977687 0 0 -5.1365e-09 
31 1 -0.00043453 -0.000183381 0.00109117 5e-05 0.0175368 -0.00804126 -0.0950031 0 0 -5.1365e-09 
333 1 -0.000329925 -0.000100074 0.00107316 5e-05 0.0296516 0.00274716 -0.11086 0 0 -5.1365e-09 
294 1 0.000424134 -9.85658e-05 0.00100317 5e-05 -0.0101731 -0.00651701 -0.102035 0 0 -5.1365e-09 
409 1 -0.000440619 -2.14433e-05 0.00106417 5e-05 0.0330147 -0.0358083 -0.0791135 0 0 -5.1365e-09 
568 1 0.000278863 2.22406e-05 0.00103467 5e-05 -0.0222125 -0.0191427 -0.115299 0 0 -5.1365e-09 
407 1 0.000489678 3.04606e-05 0.00109637 5e-05 -0.0198848 -0.0182394 -0.0749331 0 0 -5.1365e-09 
143 1 0.000398168 -2.04506e-05 0.00107124 5e-05 -0.0212728 0.00695989 -0.103958 0 0 -5.1365e-09 
466 1 0.000334397 0.0001618 0.0010265 5e-05 -0.0343653 -0.0293755 -0.117957 0 0 -5.1365e-09 
189 1 0.000362669 6.99188e-05 0.00112551 5e-05 -0.0370215 -0.0138382 -0.0959882 0 0 -5.1365e-09 
520 1 0.000457526 0.000210362 0.00110391 5e-05 -0.0298445 0.000554593 -0.107518 0 0 -5.1365e-09 
223 1 -0.000397911 0.000292889 0.0011574 5e-05 -0.0116951 -0.04014 -0.0728919 0 0 -5.1365e-09 
273 1 -0.000217205 0.000267151 0.000969653 5e-05 0.0182314 -0.0366418 -0.124052 0 0 -5.1365e-09 
56 1 -0.000197325 0.000356563 0.00115029 5e-05 0.0185453 0.00715597 -0.0536372 0 0 -5.1365e-09 
164 1 0.000265935 0.000226003 0.00110365 5e-05 -0.0324432 -0.0064521 -0.111323 0 0 -5.1365e-09 
418 1 0.00033317 0.000340726 0.00111802 5e-05 -0.0224255 0.00156433 -0.072143 0 0 -5.1365e-09 
16 1 0.000364013 0.000263402 0.00102342 5e-05 -0.027453 -0.00158203 -0.0759045 0 0 -5.1365e-09 
71 1 0.000231616 0.000367451 0.00103463 5e-05 -0.0223895 -0.0319622 -0.075484 0 0 -5.1365e-09 
265 1 0.000238258 0.000431239 0.00111384 5e-05 -0.0181179 -0.00872916 -0.0927231 0 0 -5.1365e-09 
399 1 -0.000356792 -0.000381472 0.00123156 5e-05 0.020107 0.0130585 -0.0642709 -5.59501e-07 -3.0758e-07 -3.06798e-09 
67 1 -0.000100306 -0.000476018 0.0012259 5e-05 0.0223876 0.0155482 -0.0711952 0 0 -5.1365e-09 
373 1 0.000186697 -0.000461972 0.001152 5e-05 0.000430832 0.0166237 -0.0883244 0 0 -5.1365e-09 
545 1 0.000279919 -0.000429189 0.00122527 5e-05 0.00150944 0.0186158 -0.0815508 0 0 -5.1365e-09 
395 1 -0.00034443 -0.000273754 0.00120103 5e-05 0.0120682 0.0269057 -0.0810697 0 0 -5.1365e-09 
262 1 -0.000356595 -0.000219127 0.00128631 5e-05 0.0294022 0.0138169 -0.0741752 0 0 -5.1365e-09 
286 1 -0.00027426 -0.000345694 0.00127518 5e-05 0.0127294 0.0140407 -0.0839618 5.59501e-07 3.0758e-07 -7.20503e-09 
99 1 -0.0002356 -0.000347065 0.00116307 5e-05 -0.00605761 -0.00379511 -0.0905606 0 0 -5.1365e-09 
511 1 0.000245599 -0.000297384 0.00119727 5e-05 0.00724937 0.026665 -0.0913138 0 0 -5.1365e-09 
118 1 0.000379931 -0.000315524 0.00120554 5e-05 -0.00413893 0.0307546 -0.0616231 0 0 -5.1365e-09 
470 1 -0.000430627 -0.000218742 0.00118523 5e-05 0.0252777 -0.00446717 -0.0862056 0 0 -5.1365e-09 
495 1 -0.000515608 -9.51384e-05 0.00133757 5e-05 0.00359735 0.0204743 -0.0404994 0 0 -5.1365e-09 
137 1 -0.00044035 -0.000154374 0.00130619 5e-05 0.000327256 0.00220359 -0.0799348 0 0 -5.1365e-09 
527 1 -0.000356419 -9.38846e-05 0.00123688 5e-05 0.0328322 -0.00978872 -0.095351 0 0 -5.1365e-09 
269 1 -0.00034184 -0.000181614 0.00115481 5e-05 0.0165435 0.0131009 -0.105341 0 0 -5.1365e-09 
270 1 -0.000270493 -8.489e-05 0.00117786 5e-05 0.0143365 0.00576769 -0.0968619 0 0 -5.1365e-09 
154 1 -0.000253436 -0.000225938 0.00121409 5e-05 0.0326356 0.00418538 -0.0809854 0 0 -5.1365e-09 
484 1 -0.000241133 -0.000170224 0.00130852 5e-05 0.0141205 -0.0148203 -0.0822273 0 0 -5.1365e-09 
338 1 -0.000457993 -6.75403e-05 0.00119188 5e-05 0.0107095 -0.0101015 -0.0811306 0 0 -5.1365e-09 
77 1 0.000221922 4.8907e-05 0.0012988 5e-05 -0.0186214 0.00770742 -0.0701497 0 0 -5.1365e-09 
198 1 0.000527887 2.37682e-06 0.00124843 5e-05 -0.0210388 0.0127164 -0.0731251 0 0 -5.1365e-09 
280 1 -0.000288412 0.000190535 0.00117502 5e-05 1.4403e-05 -0.0384186 -0.0796276 0 0 -5.1365e-09 
426 1 0.000337246 9.78716e-05 0.0012922 5e-05 -0.00670199 -0.0119464 -0.0872835 0 0 -5.1365e-09 
500 1 0.00045932 8.03533e-05 0.00126885 5e-05 -0.00596882 -0.00427038 -0.104941 0 0 -5.1365e-09 
522 1 -0.000341606 0.000369919 0.00124794 5e-05 -0.00305641 -0.0152079 -0.0734789 0 0 -5.1365e-09 
161 1 0.000196678 0.00023238 0.00124316 5e-05 0.00181045 0.00100061 -0.0793348 0 0 -5.1365e-09 
176 1 0.000311306 0.000284234 0.00119864 5e-05 -0.0381424 -0.0331535 -0.0673604 0 0 -5.1365e-09 
8 1 0.000240946 0.000343356 0.00125197 5e-05 -0.00473605 0.000641062 -0.0943961 0 0 -5.1365e-09 
105 1 0.000445473 0.000243811 0.0012429 5e-05 -0.0249014 -0.0164374 -0.0702251 0 0 -5.1365e-09 
540 1 -0.000264429 0.000461981 0.00127834 5e-05 -0.00231422 -0.0168664 -0.0688909 0 0 -5.1365e-09 
173 1 -0.000109765 0.000497138 0.00118346 5e-05 0.0100314 -0.0170667 -0.0690331 0 0 -5.1365e-09 
486 1 -0.000136203 0.000427536 0.00127359 5e-05 0.00974772 -0.0129518 -0.0820625 0 0 -5.1365e-09 
106 1 4.86937e-05 0.000490417 0.00123154 5e-05 -0.0146205 -0.0142073 -0.0753625 0 0 -5.1365e-09 
7 1 0.00014418 0.000488762 0.00117879 5e-05 -0.0087179 -0.0193299 -0.0840891 0 0 -5.1365e-09 
566 1 0.00029863 0.000429948 0.00122929 5e-05 -0.0165026 -0.0242463 -0.0531248 0 0 -5.1365e-09 
571 1 -6.55818e-05 0.000528228 0.00129046 5e-05 -0.00747543 -0.0153405 -0.0633771 0 0 -5.1365e-09 
556 1 -0.000159262 -0.000552026 0.00144873 5e-05 -0.00613819 0.00837065 -0.0482341 0 0 -5.1365e-09 
416 1 -0.000325421 -0.000458733 0.00142119 5e-05 -0.0157499 0.028011 -0.035857 0 0 -5.1365e-09 
335 1 -0.000212515 -0.000387016 0.00134999 5e-05 0.0119718 0.0134885 -0.0673267 0 0 -5.1365e-09 
85 1 -0.000232079 -0.000473452 0.00146064 5e-05 0.0106212 0.0112789 -0.0514911 0 0 -5.1365e-09 
167 1 -0.000210552 -0.000379685 0.00150906 5e-05 -0.0236662 0.00598551 -0.0236248 0 0 -5.1365e-09 
14 1 0.000188545 -0.000502834 0.00134232 5e-05 0.00269138 -0.0029902 -0.0692887 0 0 -5.1365e-09 
361 1 0.000308197 -0.000391292 0.00151766 5e-05 -0.000275518 -0.0094494 -0.0258686 0 0 -5.1365e-09 
478 1 0.000232901 -0.000457026 0.00149052 5e-05 -0.00780726 0.00518716 -0.0467069 0 0 -5.1365e-09 
513 1 0.000347341 -0.000483557 0.00152647 5e-05 0.00437328 0.00560197 -0.02444 0 0 -5.1365e-09 
396 1 -0.000381755 -0.000378284 0.00136044 5e-05 -0.000436258 -0.0115973 -0.0782049 0 0 -5.1365e-09 
357 1 -0.000465163 -0.000283717 0.00133645 5e-05 0.0204267 -0.0108697 -0.0748921 0 0 -5.1365e-09 
138 1 -0.000345238 -0.000344735 0.00144782 5e-05 0.00257007 0.00143562 -0.0503469 0 0 -5.1365e-09 
185 1 -0.000360024 -0.000261168 0.00139012 5e-05 0.0172104 -0.00942382 -0.0856342 0 0 -5.1365e-09 
544 1 -0.000170314 -0.000294305 0.00133118 5e-05 0.0260577 0.00627215 -0.0659737 0 0 -5.1365e-09 
271 1 -0.000227807 -0.000273708 0.00148264 5e-05 -0.0267589 0.00861058 -0.0469048 0 0 -5.1365e-09 
203 1 0.000235106 -0.00033081 0.00137805 5e-05 0.00996011 0.0137032 -0.0717602 0 0 -5.1365e-09 
255 1 0.00046577 -0.000324935 0.00143668 5e-05 0.000305345 0.014969 -0.0435624 0 0 -5.1365e-09 
518 1 0.000513273 -0.000224666 0.0013892 5e-05 -0.00397768 0.0126802 -0.0571005 0 0 -5.1365e-09 
38 1 -0.000512431 -0.000252373 0.00143516 5e-05 -0.0159019 -0.0237929 -0.065378 0 0 -5.1365e-09 
370 1 -0.000524695 -0.000128116 0.00145348 5e-05 -0.0159838 -0.00926526 -0.0653368 0 0 -5.1365e-09 
15 1 -0.000346317 -0.000131585 0.00133755 5e-05 0.0118391 -0.00793878 -0.0673679 0 0 -5.1365e-09 
567 1 -0.000321079 -0.000168869 0.00146156 5e-05 -0.0139498 0.0111592 -0.0816438 0 0 -5.1365e-09 
93 1 0.00054322 -0.000116967 0.00142124 5e-05 -0.00479382 0.0177427 -0.0505001 0 0 -5.1365e-09 
519 1 0.000543452 -0.000203174 0.00150743 5e-05 -0.0190053 0.0136217 -0.0269051 0 0 -5.1365e-09 
145 1 -0.000529577 2.57907e-05 0.00134494 5e-05 0.0178417 -0.000360006 -0.0545178 0 0 -5.1365e-09 
58 1 -0.000426617 -1.74696e-05 0.00133031 5e-05 0.0405283 0.010128 -0.0792213 0 0 -5.1365e-09 
364 1 -0.000416059 -6.96817e-07 0.00145109 5e-05 -0.0111947 -0.0142495 -0.042847 0 0 -5.1365e-09 
472 1 -0.000315602 -1.16854e-05 0.00147431 5e-05 -0.0154636 0.00322295 -0.044761 0 0 -5.1365e-09 
69 1 0.000370615 -2.92311e-05 0.00132996 5e-05 -0.0162379 -0.0259887 -0.0691511 0 0 -5.1365e-09 
386 1 0.000411006 -5.38051e-05 0.00150161 5e-05 -0.00178107 0.00552417 -0.0312806 0 0 -5.1365e-09 
443 1 0.000403198 6.93779e-05 0.00147926 5e-05 -0.00286911 0.0216908 -0.0650802 0 0 -5.1365e-09 
327 1 0.000540896 6.02105e-05 0.00133878 5e-05 -0.0139643 0.0174083 -0.0461229 0 0 -5.1365e-09 
264 1 0.000592866 5.95873e-06 0.00149061 5e-05 -0.0109283 0.00732944 -0.0251172 0 0 -5.1365e-09 
245 1 -0.000534636 0.000120577 0.0014571 5e-05 0.0139643 -0.0113578 -0.0370919 0 0 -5.1365e-09 
19 1 -0.000553596 0.000222291 0.00152167 5e-05 0.0028941 -0.00699026 -0.0116261 0 0 -5.1365e-09 
451 1 0.000316268 0.000214644 0.00131708 5e-05 -0.0241441 0.00148184 -0.0964623 0 0 -5.1365e-09 
64 1 0.000272281 0.000151468 0.00139665 5e-05 0.00415241 0.0159968 -0.0641752 0 0 -5.1365e-09 
307 1 0.000483656 9.64876e-05 0.00141611 5e-05 -0.012953 0.0193162 -0.0713656 0 0 -5.1365e-09 
404 1 0.000415803 0.000181482 0.00133764 5e-05 0.000707198 -0.0434383 -0.0764349 0 0 -5.1365e-09 
94 1 0.000539178 0.000197133 0.0014484 5e-05 -0.0125565 0.0255092 -0.0506185 0 0 -5.1365e-09 
1 1 0.000270122 0.000336625 0.00137557 5e-05 -0.0277019 -0.0181741 -0.0667836 0 0 -5.1365e-09 
380 1 0.000375969 0.000272225 0.00141054 5e-05 -0.00735009 0.00113673 -0.0624393 0 0 -5.1365e-09 
539 1 0.000450698 0.000342785 0.00140567 5e-05 -0.0280565 0.007674 -0.0609996 0 0 -5.1365e-09 
234 1 0.000376187 0.000368385 0.0013278 5e-05 -0.00219848 -0.0188793 -0.0799312 0 0 -5.1365e-09 
505 1 -0.000441899 0.000392899 0.00148312 5e-05 -0.00152213 -0.00101409 0.00350898 -5.42003e-08 -4.39284e-08 1.47012e-07 
561 1 -0.000319595 0.000473874 0.0014384 5e-05 0.0104451 -0.00979947 -0.051721 0 0 -5.1365e-09 
565 1 -0.000345318 0.000391457 0.00135426 5e-05 -0.0175011 0.00113994 -0.0662505 0 0 -5.1365e-09 
163 1 -0.000189112 0.000377236 0.0013845 5e-05 -0.00551639 -0.00938171 -0.0736917 0 0 -5.1365e-09 
125 1 -0.000209175 0.000463161 0.00143751 5e-05 -0.00478597 0.000213861 -0.078652 0 0 -5.1365e-09 
260 1 0.00025245 0.000497669 0.00140229 5e-05 0.000242264 0.0120267 -0.0715532 0 0 -5.1365e-09 
187 1 0.000306482 0.00044584 0.00133502 5e-05 -0.0074201 -0.0171871 -0.0769969 0 0 -5.1365e-09 
119 1 -7.25686e-05 0.000590673 0.0015316 5e-05 0.00512743 0.00156968 0.00569899 0 0 -5.1365e-09 
525 1 2.79664e-05 0.000594352 0.00151392 5e-05 0.00413453 0.00392426 -0.0274601 0 0 -5.1365e-09 
79 1 0.00012515 0.000554636 0.00148993 5e-05 0.0117419 0.00486184 -0.0323613 0 0 -5.1365e-09 
533 1 -0.00025509 -0.00054002 0.00157107 5e-05 0.0125265 0.0161565 -0.0333604 0 0 -5.1365e-09 
206 1 -0.000163105 -0.000570699 0.00166215 5e-05 -0.00692044 0.0138807 -0.028257 0 0 -5.1365e-09 
200 1 -6.41624e-05 -0.000606509 0.00160697 5e-05 -0.0391497 -0.0188303 -0.00615288 0 0 -5.1365e-09 
375 1 -2.85613e-06 -0.000562572 0.00153723 5e-05 -0.00680271 -0.00767775 -0.00880089 0 0 -5.1365e-09 
398 1 4.76495e-05 -0.000619261 0.00164993 5e-05 0.0148014 0.00463814 -0.00899691 0 0 -5.1365e-09 
569 1 9.4184e-05 -0.000591789 0.00156298 5e-05 0.00226039 0.00994018 -0.023973 0 0 -5.1365e-09 
341 1 0.000264626 -0.000540861 0.00154286 5e-05 -0.0123015 -0.0106788 -0.0236868 0 0 -5.1365e-09 