ITEM: TIMESTEP
19000
ITEM: NUMBER OF ATOMS
571
ITEM: BOX BOUNDS ff ff ff
-0.001 0.001
-0.001 0.001
0 0.004
ITEM: ATOMS id type x y z radius vx vy vz fx fy fz 
209 1 -0.000176376 -3.93859e-05 7.25033e-05 5e-05 0.0166745 -0.0325699 0.19893 0 0 -5.1365e-09 
526 1 0.000181262 -0.000218055 0.000359431 5e-05 -0.0349341 0.0214188 -0.159338 0 0 -5.1365e-09 
182 1 -0.000137009 -8.57629e-05 0.000257391 5e-05 0.060596 -0.0419603 -0.210696 0 0 -5.1365e-09 
242 1 -1.4255e-05 -2.2246e-05 0.000264858 5e-05 -0.00793612 0.0877651 -0.215406 0 0 -5.1365e-09 
252 1 -0.000233843 8.45243e-05 0.000242884 5e-05 0.0553544 -0.044972 -0.153446 0 0 -5.1365e-09 
353 1 -0.000152121 0.000202687 0.000282667 5e-05 0.000644034 -0.000277811 -0.186689 0 0 -5.1365e-09 
551 1 -1.83871e-05 -0.000292975 0.000486514 5e-05 0.0228558 -0.000779985 -0.152601 0 0 -5.1365e-09 
250 1 2.1049e-05 -0.000169811 0.000484696 5e-05 0.0262471 -0.0670023 -0.132323 0 0 -5.1365e-09 
322 1 0.000100528 -0.000186922 0.000424589 5e-05 -0.0241192 0.00567688 -0.183937 0 0 -5.1365e-09 
318 1 0.000163153 -9.95646e-05 0.000406835 5e-05 -0.0483912 0.0133628 -0.177275 0 0 -5.1365e-09 
468 1 -0.000286271 -6.43347e-05 0.000531159 5e-05 0.0646828 -0.015334 -0.1581 0 0 -5.1365e-09 
243 1 -0.000322066 2.69141e-05 0.000506583 5e-05 0.0189619 -0.0407512 -0.153077 0 0 -5.1365e-09 
235 1 -4.07945e-05 -6.59175e-05 0.000442214 5e-05 -0.00433109 0.0186243 -0.188588 0 0 -5.1365e-09 
36 1 4.14732e-05 8.5375e-08 0.000501489 5e-05 -0.0373817 -0.0713757 -0.145871 0 0 -5.1365e-09 
490 1 0.000233523 -1.47908e-05 0.000426867 5e-05 -0.0343185 0.0119519 -0.156091 0 0 -5.1365e-09 
186 1 0.000211779 8.86651e-05 0.00051046 5e-05 -0.0695502 0.0328941 -0.126995 0 0 -5.1365e-09 
308 1 -0.000297743 9.20274e-05 0.000405994 5e-05 0.0194618 -0.0476071 -0.15455 0 0 -5.1365e-09 
157 1 -6.45267e-05 0.00012497 0.000363187 5e-05 0.0353351 -0.0237009 -0.195855 0 0 -5.1365e-09 
326 1 -0.000148443 7.1931e-05 0.000449979 5e-05 0.0568163 -0.0179503 -0.173751 0 0 -5.1365e-09 
529 1 5.73585e-05 0.0002037 0.000487717 5e-05 0.00275546 0.0760712 -0.163892 0 0 -5.1365e-09 
425 1 -5.01516e-05 0.000287976 0.000449069 5e-05 0.0307473 -0.0265059 -0.16783 0 0 -5.1365e-09 
453 1 -0.000127984 -0.000275272 0.000596346 5e-05 -0.0665029 0.00243996 -0.137514 0 0 -5.1365e-09 
89 1 3.06246e-05 -0.000361767 0.000573349 5e-05 0.0135547 0.00488358 -0.130107 0 0 -5.1365e-09 
251 1 -4.63578e-05 -0.00023458 0.000670905 5e-05 -0.0040718 0.055449 -0.104527 0 0 -5.1365e-09 
328 1 9.60847e-05 -0.00021784 0.000552578 5e-05 0.00886542 0.0832942 -0.129376 0 0 -5.1365e-09 
73 1 0.000180683 -0.000268796 0.000616137 5e-05 -0.0155696 0.0117007 -0.133313 0 0 -5.1365e-09 
199 1 0.000177249 -0.000122068 0.000524453 5e-05 -0.0431957 0.0284453 -0.159604 0 0 -5.1365e-09 
299 1 0.000183873 -0.000177997 0.000687794 5e-05 -0.0332155 0.052715 -0.109937 0 0 -5.1365e-09 
24 1 0.000265031 -0.00010521 0.000621142 5e-05 -0.054135 0.0213206 -0.119761 0 0 -5.1365e-09 
367 1 -0.00036651 -7.53291e-05 0.000609926 5e-05 0.0252179 -0.0275102 -0.141518 0 0 -5.1365e-09 
285 1 -9.9172e-05 -7.59083e-05 0.000581648 5e-05 0.0692519 -0.0312145 -0.160896 0 0 -5.1365e-09 
508 1 0.000187466 1.12953e-06 0.000597415 5e-05 -0.0416663 0.0449438 -0.154817 0 0 -5.1365e-09 
132 1 0.000268384 5.66076e-05 0.000634056 5e-05 0.0360934 -0.0300313 -0.188036 0 0 -5.1365e-09 
471 1 -0.000254798 0.000108991 0.00053266 5e-05 0.0446876 -0.0306867 -0.160618 0 0 -5.1365e-09 
311 1 -0.000144516 0.000169953 0.000633534 5e-05 0.050909 -0.032858 -0.175682 0 0 -5.1365e-09 
183 1 -1.86651e-05 0.000135707 0.000565402 5e-05 -0.0351388 -0.0642447 -0.152907 0 0 -5.1365e-09 
57 1 9.55767e-05 0.000226304 0.000578017 5e-05 0.0383577 0.0188959 -0.147472 0 0 -5.1365e-09 
493 1 0.000312469 0.000137762 0.000679956 5e-05 0.00275144 -0.0508881 -0.135288 0 0 -5.1365e-09 
128 1 -0.000248043 0.000241008 0.000611738 5e-05 0.00608142 -0.0217544 -0.143566 0 0 -5.1365e-09 
422 1 3.18952e-05 0.000329201 0.000568385 5e-05 -0.050014 -0.0313694 -0.133867 0 0 -5.1365e-09 
90 1 0.000218304 0.000262369 0.000674535 5e-05 0.0110597 0.0329755 -0.160214 0 0 -5.1365e-09 
528 1 5.44666e-05 -0.000416741 0.000808377 5e-05 -0.0338193 0.0522204 -0.0914361 0 0 -5.1365e-09 
379 1 -0.000164662 -0.000287122 0.000751431 5e-05 0.0352849 0.0118298 -0.129552 0 0 -5.1365e-09 
23 1 -7.43205e-05 -0.000352361 0.000689002 5e-05 -0.0605067 0.00157336 -0.138625 0 0 -5.1365e-09 
541 1 2.2718e-05 -0.000235372 0.000810037 5e-05 -0.0675318 0.0262657 -0.13032 0 0 -5.1365e-09 
558 1 0.000183321 -0.000339073 0.000779286 5e-05 -0.0230921 0.0131989 -0.129743 0 0 -5.1365e-09 
381 1 0.000287505 -0.000281914 0.000759946 5e-05 -0.000573064 0.00154187 -0.160619 0 0 -5.1365e-09 
222 1 0.000320947 -0.000192893 0.000723008 5e-05 -0.0453157 0.027849 -0.0952525 0 0 -5.1365e-09 
13 1 0.00035908 -0.000183746 0.000824284 5e-05 -0.0511867 0.0281674 -0.110713 0 0 -5.1365e-09 
509 1 -0.000289526 4.71241e-05 0.000693169 5e-05 0.0251607 -0.0142552 -0.139707 0 0 -5.1365e-09 
239 1 -0.000354354 -7.25891e-05 0.000774588 5e-05 0.0215619 -0.0277545 -0.131645 0 0 -5.1365e-09 
321 1 -0.000247477 -6.03091e-05 0.00075892 5e-05 0.0553306 -0.0465459 -0.121498 0 0 -5.1365e-09 
463 1 -0.000307673 4.24161e-05 0.000827764 5e-05 0.0415712 -0.0331412 -0.151032 0 0 -5.1365e-09 
485 1 -0.00015205 4.94165e-05 0.000713276 5e-05 0.0600506 -0.0251963 -0.12866 0 0 -5.1365e-09 
37 1 0.000285773 -1.4863e-05 0.000713485 5e-05 -0.0318167 0.022242 -0.166259 0 0 -5.1365e-09 
459 1 0.000313297 6.04021e-05 0.000814699 5e-05 -0.0340903 0.049333 -0.136199 0 0 -5.1365e-09 
350 1 0.000382399 2.44546e-05 0.000738023 5e-05 -0.0408249 0.0304954 -0.0875311 0 0 -5.1365e-09 
482 1 -0.000323244 0.000123888 0.000766575 5e-05 0.0421089 -0.0332997 -0.109397 0 0 -5.1365e-09 
49 1 -0.000194613 5.93611e-05 0.000809684 5e-05 0.0369398 -0.0310193 -0.171147 0 0 -5.1365e-09 
475 1 0.000188209 0.000170621 0.000719382 5e-05 -0.0277007 0.0179758 -0.0985263 0 0 -5.1365e-09 
10 1 -0.000293977 0.000226569 0.000832922 5e-05 0.0215427 -0.0145968 -0.128519 0 0 -5.1365e-09 
115 1 1.40441e-08 0.000251685 0.000737465 5e-05 0.0414637 -0.0104724 -0.140653 0 0 -5.1365e-09 
473 1 -0.000181657 -0.000415553 0.00101278 5e-05 0.0304737 0.0187174 -0.0919086 0 0 -5.1365e-09 
489 1 -1.97199e-05 -0.000409244 0.000879328 5e-05 -0.0319252 0.0510858 -0.086228 0 0 -5.1365e-09 
196 1 0.000166494 -0.000415549 0.00092167 5e-05 0.0231585 0.0373607 -0.0956274 -3.05338e-06 4.59247e-06 5.32215e-06 
168 1 -0.000332034 -0.00026686 0.00100697 5e-05 0.0695538 -0.00545013 -0.0687283 0 0 -5.1365e-09 
401 1 -5.57203e-05 -0.000288898 0.000960878 5e-05 -0.04507 0.0396533 -0.0915358 0 0 -5.1365e-09 
402 1 0.000236661 -0.000344265 0.000902707 5e-05 -0.0231064 0.0233691 -0.103717 0 0 -5.1365e-09 
331 1 0.000325147 -0.000253946 0.00092747 5e-05 -0.0307333 0.0119669 -0.137738 0 0 -5.1365e-09 
363 1 -0.000368201 -0.000109696 0.000970353 5e-05 0.0345445 0.0288699 -0.124946 0 0 -5.1365e-09 
153 1 -0.000150947 -0.000144279 0.0008655 5e-05 0.0495823 -0.049178 -0.107084 0 0 -5.1365e-09 
25 1 0.000167896 -0.000209749 0.000910518 5e-05 -0.0386864 0.00878656 -0.12558 0 0 -5.1365e-09 
78 1 0.000180876 -0.00012085 0.000984852 5e-05 -0.024033 0.0301318 -0.140213 0 0 -5.1365e-09 
434 1 0.000251303 -6.2401e-05 0.000854518 5e-05 -0.049313 0.0466112 -0.131944 0 0 -5.1365e-09 
17 1 0.000278731 -6.04198e-05 0.000992562 5e-05 0.00344294 0.0518557 -0.123489 0 0 -5.1365e-09 
136 1 0.000413115 -0.000145421 0.000917602 5e-05 -0.0336122 0.0185428 -0.108085 0 0 -5.1365e-09 
383 1 -0.000405069 -3.96956e-05 0.000887142 5e-05 0.00112309 -0.0363858 -0.164658 0 0 -5.1365e-09 
61 1 -0.000448918 5.39031e-05 0.00094551 5e-05 0.00893229 -0.0324523 -0.126024 0 0 -5.1365e-09 
30 1 -0.000265381 -1.07854e-05 0.000986132 5e-05 0.0451618 -0.0296124 -0.140336 0 0 -5.1365e-09 
564 1 -0.000152912 1.40177e-05 0.000986325 5e-05 0.0281653 -0.020797 -0.130313 0 0 -5.1365e-09 
86 1 5.8893e-05 4.3456e-05 0.000862128 5e-05 -0.0701383 0.0489222 -0.127229 0 0 -5.1365e-09 
91 1 0.000229878 8.68437e-05 0.000867972 5e-05 -0.0130264 0.0387272 -0.158067 0 0 -5.1365e-09 
457 1 0.000439495 -4.48814e-05 0.000955461 5e-05 -0.00108388 0.0175079 -0.14305 0 0 -5.1365e-09 
50 1 0.000388895 4.65653e-05 0.000929895 5e-05 -0.0589984 0.00896944 -0.0848259 0 0 -5.1365e-09 
123 1 -0.000409674 0.000130084 0.00087647 5e-05 0.0310129 -0.0359417 -0.111305 0 0 -5.1365e-09 
393 1 -0.000387961 0.000206765 0.000941718 5e-05 0.0170639 -0.0312311 -0.114206 0 0 -5.1365e-09 
126 1 -0.000341038 6.16886e-05 0.00094835 5e-05 0.0287857 -0.035292 -0.129559 0 0 -5.1365e-09 
388 1 -0.000290675 0.000151147 0.000914838 5e-05 0.0331853 -0.0159825 -0.146981 0 0 -5.1365e-09 
213 1 -4.94183e-05 9.92061e-05 0.000945778 5e-05 0.0663196 -0.0310695 -0.122664 0 0 -5.1365e-09 
441 1 0.000379027 0.000235957 0.000939407 5e-05 -0.0534846 0.0451277 -0.112088 0 0 -5.1365e-09 
537 1 -0.000272117 0.000318053 0.000937095 5e-05 0.0316513 -0.0197792 -0.117787 0 0 -5.1365e-09 
108 1 -0.000185973 0.000264738 0.000925308 5e-05 -0.00119692 0.0106241 -0.131655 0 0 -5.1365e-09 
358 1 8.65431e-05 0.00022403 0.00096264 5e-05 0.0379713 -0.073472 -0.134492 0 0 -5.1365e-09 
560 1 -8.3068e-05 0.000358441 0.000986595 5e-05 -0.0244313 -0.0147841 -0.107131 0 0 -5.1365e-09 
60 1 8.60216e-05 0.000333114 0.000862841 5e-05 -0.025586 -0.0363983 -0.127876 0 0 -5.1365e-09 
384 1 2.43487e-05 0.000410475 0.000947936 5e-05 0.0366834 -0.0280761 -0.0825154 0 0 -5.1365e-09 
42 1 7.47781e-06 -0.000478457 0.00114905 5e-05 0.0367475 0.005714 -0.103976 0 0 -5.1365e-09 
291 1 0.00019338 -0.000386676 0.00102965 5e-05 0.0249656 0.0168862 -0.079524 0 0 -5.1365e-09 
538 1 0.000301083 -0.000229803 0.00117545 5e-05 -0.00587767 0.0166018 -0.135256 0 0 -5.1365e-09 
141 1 0.000301714 -0.000257623 0.00106516 5e-05 -0.0174466 0.0278864 -0.100707 0 0 -5.1365e-09 
35 1 0.000402923 -0.0002373 0.00112939 5e-05 -0.032691 0.0231748 -0.106124 0 0 -5.1365e-09 
342 1 -0.0004555 -0.000204077 0.00112069 5e-05 0.0530383 0.00151203 -0.0632464 0 0 -5.1365e-09 
449 1 -0.000267393 -0.000131249 0.00101726 5e-05 0.0471279 0.0141527 -0.124621 0 0 -5.1365e-09 
160 1 -0.000317237 -0.000137988 0.00111496 5e-05 0.0366881 -0.0269003 -0.10575 0 0 -5.1365e-09 
281 1 -0.000198891 -0.000185315 0.00114819 5e-05 0.0426414 -0.0222216 -0.100333 0 0 -5.1365e-09 
92 1 -0.000149688 -9.88382e-05 0.00102967 5e-05 0.0482677 -0.024454 -0.131139 0 0 -5.1365e-09 
549 1 5.29235e-06 -0.000121818 0.00103728 5e-05 0.0270582 0.0804245 -0.125803 0 0 -5.1365e-09 
305 1 8.67175e-05 -0.000203289 0.0010389 5e-05 -0.0488489 0.0374561 -0.0899936 0 0 -5.1365e-09 
448 1 0.000232785 -0.000157803 0.0010775 5e-05 -0.0471916 0.0187492 -0.124035 0 0 -5.1365e-09 
274 1 0.000370338 -0.000110683 0.00107675 5e-05 -0.0139707 0.0136985 -0.145752 0 0 -5.1365e-09 
121 1 0.000389167 -0.000205113 0.00101332 5e-05 -0.00567596 0.00924923 -0.115894 0 0 -5.1365e-09 
447 1 0.000475377 -8.91925e-05 0.00111695 5e-05 -0.0235526 0.023994 -0.103983 0 0 -5.1365e-09 
387 1 -0.000478688 -4.31846e-05 0.00105687 5e-05 0.0322677 -0.0281756 -0.0915912 0 0 -5.1365e-09 
26 1 -0.00050713 1.46944e-05 0.00114347 5e-05 0.00262137 -0.00720683 -0.0840154 0 0 -5.1365e-09 
75 1 -0.000378835 -2.56812e-05 0.00111947 5e-05 0.0305145 -0.0203065 -0.112049 0 0 -5.1365e-09 
142 1 -0.000248166 3.39461e-05 0.00113196 5e-05 0.0289615 -0.0109281 -0.123949 0 0 -5.1365e-09 
454 1 0.000191011 5.72701e-05 0.00106589 5e-05 -0.0164647 0.0288415 -0.136156 0 0 -5.1365e-09 
170 1 0.000277133 -4.16203e-05 0.00113937 5e-05 -0.022811 0.00170659 -0.132482 0 0 -5.1365e-09 
261 1 0.000358038 -1.09554e-05 0.00103661 5e-05 -0.0180345 0.00654337 -0.131156 0 0 -5.1365e-09 
340 1 0.000415322 -9.249e-06 0.00114141 5e-05 -0.0272736 -0.0160787 -0.115128 0 0 -5.1365e-09 
421 1 -0.000424086 7.92294e-05 0.00104376 5e-05 0.0130716 -0.030446 -0.132206 0 0 -5.1365e-09 
226 1 -0.000470741 0.000166115 0.00113445 5e-05 0.0105616 -0.0305489 -0.113084 0 0 -5.1365e-09 
324 1 -0.000294835 0.000137478 0.00113411 5e-05 0.0278981 -0.000866243 -0.120632 0 0 -5.1365e-09 
47 1 -0.000337133 0.000177725 0.00103539 5e-05 0.00335351 -0.0425122 -0.119268 0 0 -5.1365e-09 
507 1 -0.000132162 9.13404e-05 0.00114582 5e-05 0.0561152 -0.0364735 -0.113958 0 0 -5.1365e-09 
87 1 -0.000163396 0.000212587 0.00103966 5e-05 0.0488708 -0.0292206 -0.128742 0 0 -5.1365e-09 
228 1 6.68138e-05 0.000186633 0.00116324 5e-05 -0.0439509 -0.0505929 -0.0783602 0 0 -5.1365e-09 
287 1 0.000363296 8.51262e-05 0.00108617 5e-05 -0.0340234 0.00232019 -0.109851 0 0 -5.1365e-09 
256 1 0.000256459 0.000146352 0.00114402 5e-05 -0.0478942 0.0332841 -0.0948537 0 0 -5.1365e-09 
497 1 0.000387755 0.000176825 0.0010318 5e-05 -0.0442989 -0.0107468 -0.0867471 0 0 -5.1365e-09 
84 1 0.00045636 9.81073e-05 0.0011384 5e-05 -0.0292768 0.0271827 -0.0875192 0 0 -5.1365e-09 
224 1 -0.000406532 0.000267801 0.00115122 5e-05 0.00934345 -0.0113026 -0.125058 0 0 -5.1365e-09 
320 1 -0.000357537 0.00027981 0.00102268 5e-05 0.0201946 -0.0154106 -0.10537 0 0 -5.1365e-09 
389 1 -0.00031231 0.000310127 0.0011124 5e-05 0.0122388 -0.0397967 -0.120174 0 0 -5.1365e-09 
74 1 0.000356155 0.000284139 0.00107738 5e-05 -0.0491351 0.014835 -0.0845042 0 0 -5.1365e-09 
476 1 0.00012704 0.000446849 0.00102625 5e-05 -0.0190918 -0.0301779 -0.110241 0 0 -5.1365e-09 
9 1 -7.78051e-05 -0.000530963 0.00131292 5e-05 0.00678737 0.0247327 -0.0544921 0 0 -5.1365e-09 
113 1 -0.000322486 -0.000413918 0.00134645 5e-05 0.0302533 -0.00214568 -0.0624811 0 0 -5.1365e-09 
3 1 -3.75046e-05 -0.000401377 0.00125779 5e-05 0.0142081 0.0519998 -0.078264 0 0 -5.1365e-09 
317 1 7.50599e-05 -0.000459047 0.00126066 5e-05 -0.00721524 0.0530849 -0.0722578 0 0 -5.1365e-09 
107 1 0.000197592 -0.000460854 0.00127009 5e-05 0.0300609 0.0248288 -0.0618562 0 0 -5.1365e-09 
296 1 0.000308123 -0.000422748 0.00122577 5e-05 -0.021723 0.000774492 -0.0651637 0 0 -5.1365e-09 
227 1 -0.000387653 -0.000281049 0.00127263 5e-05 0.0267836 0.00715341 -0.0729974 0 0 -5.1365e-09 
159 1 0.000364757 -0.000318979 0.00118272 5e-05 -0.0202491 0.00988469 -0.0919271 0 0 -5.1365e-09 
337 1 -0.000501188 -0.000182567 0.0013016 5e-05 0.0258776 -0.0238849 -0.0751591 0 0 -5.1365e-09 
165 1 -0.000403716 -0.000143923 0.00127344 5e-05 0.0267613 -0.016306 -0.102134 0 0 -5.1365e-09 
51 1 -0.000288479 -0.000174161 0.00121622 5e-05 0.0519598 0.00694083 -0.11799 0 0 -5.1365e-09 
330 1 0.000380277 -9.00041e-05 0.00122874 5e-05 0.0168423 0.0469094 -0.109922 0 0 -5.1365e-09 
496 1 0.000392629 -0.000190004 0.00121825 5e-05 0.0571732 0.00633507 -0.0882646 0 0 -5.1365e-09 
258 1 0.000494152 -0.00019959 0.00126062 5e-05 -0.0243535 0.0217125 -0.0873233 0 0 -5.1365e-09 
325 1 0.000421965 -0.000128308 0.00132067 5e-05 -0.0250879 -0.00319405 -0.0891765 0 0 -5.1365e-09 
438 1 -0.000541277 4.21596e-06 0.00128399 5e-05 0.000184825 -0.0194836 -0.109067 0 0 -5.1365e-09 
429 1 -0.000511514 -8.82313e-05 0.001217 5e-05 0.0232618 -0.0214675 -0.0921152 0 0 -5.1365e-09 
45 1 -0.000443801 -1.3336e-05 0.00123608 5e-05 0.0235538 -0.0142663 -0.0909836 0 0 -5.1365e-09 
6 1 -0.000378312 6.92886e-05 0.00118661 5e-05 0.00524257 0.00649951 -0.119171 0 0 -5.1365e-09 
214 1 -0.000359102 5.18463e-05 0.00130777 5e-05 0.00815724 -0.00043649 -0.112454 0 0 -5.1365e-09 
455 1 -0.000185309 -5.8622e-05 0.00129965 5e-05 0.0145165 -0.0156057 -0.089763 0 0 -5.1365e-09 
504 1 0.000244939 1.297e-05 0.00123137 5e-05 -0.0375333 0.0394543 -0.109524 0 0 -5.1365e-09 
34 1 0.000345304 -9.11729e-06 0.00128394 5e-05 -0.016712 -0.00441565 -0.0929384 0 0 -5.1365e-09 
266 1 0.000512806 1.08419e-05 0.00119742 5e-05 -0.0307556 0.00679513 -0.073276 0 0 -5.1365e-09 
479 1 0.000425715 6.9072e-05 0.00128838 5e-05 -0.0328998 0.0271777 -0.112201 0 0 -5.1365e-09 
208 1 0.000554476 -4.08718e-06 0.00131887 5e-05 -0.0297584 -0.000358922 -0.0684865 0 0 -5.1365e-09 
351 1 -0.000522524 0.000116318 0.00131432 5e-05 0.00832404 -0.00579387 -0.0523304 0 0 -5.1365e-09 
95 1 -0.000377581 0.000178363 0.00122069 5e-05 0.0139485 -0.0138474 -0.132331 0 0 -5.1365e-09 
109 1 -0.000420438 0.000134932 0.00131576 5e-05 0.0400851 0.00325883 -0.10463 0 0 -5.1365e-09 
347 1 -0.000269994 0.000109956 0.0012759 5e-05 0.0223649 0.00709058 -0.0990705 0 0 -5.1365e-09 
346 1 0.000355827 0.000160567 0.00118217 5e-05 -0.0301393 0.0177795 -0.107116 0 0 -5.1365e-09 
225 1 0.000265377 0.000160867 0.00127045 5e-05 -0.0325784 0.0113957 -0.0905628 0 0 -5.1365e-09 
282 1 0.000490519 0.000175885 0.00124141 5e-05 0.00510123 0.00713782 -0.0842335 0 0 -5.1365e-09 
135 1 0.000412252 0.000173614 0.00131547 5e-05 -0.0639966 0.0339713 -0.0643122 0 0 -5.1365e-09 
11 1 0.000529269 9.37366e-05 0.00128575 5e-05 -0.030956 0.00424174 -0.0874793 0 0 -5.1365e-09 
413 1 0.000360758 0.000278638 0.00132368 5e-05 -0.0229637 0.0266518 -0.0860873 0 0 -5.1365e-09 
244 1 0.000416894 0.000250102 0.00121558 5e-05 -0.0366452 0.0185326 -0.106967 0 0 -5.1365e-09 
174 1 -0.00023187 0.000453855 0.0012237 5e-05 -0.0773338 -0.00813181 -0.0876542 0 0 -5.1365e-09 
502 1 6.64067e-05 0.000513173 0.00122498 5e-05 -0.00233688 -0.0178703 -0.0891011 0 0 -5.1365e-09 
181 1 -1.07489e-05 0.000432067 0.00128567 5e-05 -0.00806372 -0.0465356 -0.0876161 0 0 -5.1365e-09 
140 1 7.22632e-05 0.000389149 0.00121532 5e-05 -0.0180171 -0.0287945 -0.0934977 0 0 -5.1365e-09 
218 1 0.000301467 0.000408641 0.00128155 5e-05 -0.0192395 -0.00584947 -0.0693529 0 0 -5.1365e-09 
548 1 -2.6998e-05 0.000543138 0.00131006 5e-05 -0.00854195 -0.0113418 -0.0282209 0 0 -5.1365e-09 
207 1 -8.13516e-05 -0.000581248 0.00150051 5e-05 0.0353411 -0.0012298 -0.0452281 0 0 -5.1365e-09 
553 1 3.73163e-05 -0.000580637 0.00145772 5e-05 0.0638782 0.00678352 -0.0290829 0 0 -5.1365e-09 
298 1 0.000209868 -0.000533665 0.00143545 5e-05 0.0250584 0.0144223 -0.045091 0 0 -5.1365e-09 
68 1 -0.000359455 -0.000420057 0.00144038 5e-05 0.0119734 0.000360419 -0.0719429 0 0 -5.1365e-09 
283 1 -0.000181269 -0.000526683 0.00148565 5e-05 0.00775486 0.00975003 -0.0217905 0 0 -5.1365e-09 
536 1 5.88295e-05 -0.000445497 0.00136584 5e-05 -0.000629254 0.0197803 -0.072223 0 0 -5.1365e-09 
382 1 0.000113435 -0.00041675 0.00147615 5e-05 0.00128526 0.000876175 -0.0451909 0 0 -5.1365e-09 
188 1 0.000195494 -0.000475681 0.00151687 5e-05 0.00963535 -0.0113363 -0.0311237 0 0 -5.1365e-09 
514 1 -0.000472922 -0.000259764 0.00139337 5e-05 0.0140434 0.00897453 -0.073617 0 0 -5.1365e-09 
29 1 -0.00039503 -0.000325182 0.00141162 5e-05 -0.00315069 -0.00575999 -0.0620408 0 0 -5.1365e-09 
237 1 -0.000482208 -0.000314438 0.00149381 5e-05 0.0027852 0.0151625 -0.0638316 0 0 -5.1365e-09 
400 1 -0.000316044 -0.000264725 0.00144664 5e-05 0.00735629 -0.00927811 -0.0816375 0 0 -5.1365e-09 
316 1 0.000344416 -0.000353377 0.00138044 5e-05 -0.0208822 0.0389342 -0.0364714 0 0 -5.1365e-09 
166 1 0.000460323 -0.000328184 0.00143355 5e-05 -0.00114836 0.0210249 -0.0455389 0 0 -5.1365e-09 
215 1 0.000480378 -0.000224866 0.00142612 5e-05 -0.0328037 0.031596 -0.0623802 0 0 -5.1365e-09 
355 1 -0.000542456 -7.99125e-05 0.00135823 5e-05 0.0244663 0.00911791 -0.0817874 0 0 -5.1365e-09 
83 1 -0.000538399 -0.000180601 0.00144219 5e-05 0.0308301 0.00343276 -0.0565364 0 0 -5.1365e-09 
295 1 -0.00042635 -0.000211859 0.00147285 5e-05 0.00754598 -0.0151104 -0.0833395 0 0 -5.1365e-09 
103 1 -0.000446497 -0.000114761 0.00137647 5e-05 0.0210057 -0.0125406 -0.0970463 0 0 -5.1365e-09 
191 1 -0.000354991 -0.00016913 0.00139509 5e-05 0.0119628 -0.0269981 -0.0830295 0 0 -5.1365e-09 
204 1 -0.000271606 -0.000114732 0.00136776 5e-05 0.022064 -0.0286828 -0.0851253 0 0 -5.1365e-09 
343 1 -0.000299966 -0.000161893 0.00149304 5e-05 0.0141031 -0.00646645 -0.0650746 0 0 -5.1365e-09 
155 1 0.000306014 -0.000126443 0.00135624 5e-05 -0.0378876 0.0199546 -0.0808045 0 0 -5.1365e-09 
467 1 0.000370311 -8.33749e-05 0.00142544 5e-05 0.000642427 -0.00377601 -0.0720055 0 0 -5.1365e-09 
233 1 0.000435391 -0.000110721 0.00150055 5e-05 -0.0210655 0.024274 -0.0619767 0 0 -5.1365e-09 
27 1 0.000543071 -9.23783e-05 0.00142989 5e-05 0.00623464 -0.0109412 -0.055036 0 0 -5.1365e-09 
294 1 0.000558837 -0.000168231 0.001501 5e-05 0.0271881 0.00533262 -0.0650744 0 0 -5.1365e-09 
111 1 -0.000569499 1.40893e-05 0.00141477 5e-05 0.0142488 -0.017625 -0.0767735 0 0 -5.1365e-09 
506 1 -0.000472007 3.35714e-06 0.00138127 5e-05 0.00432152 -0.0156561 -0.0765412 0 0 -5.1365e-09 
532 1 -0.000454814 2.2361e-06 0.00148371 5e-05 -0.0061636 -0.0128209 -0.0625193 0 0 -5.1365e-09 
312 1 -0.000357237 -5.9316e-05 0.00136423 5e-05 0.0357651 -0.0126957 -0.0779646 0 0 -5.1365e-09 
397 1 -0.000388481 -7.41025e-05 0.00147267 5e-05 -0.00718958 -0.00652036 -0.0763387 0 0 -5.1365e-09 
431 1 -0.000266269 1.70327e-05 0.00138129 5e-05 0.0206953 -0.0263053 -0.0883935 0 0 -5.1365e-09 
329 1 -0.00035542 2.38994e-05 0.00145661 5e-05 0.0207291 -0.0284451 -0.0970758 0 0 -5.1365e-09 
82 1 0.000146813 3.40197e-05 0.00142544 5e-05 -0.0582155 -0.0180804 -0.0551475 0 0 -5.1365e-09 
304 1 0.000330194 1.77346e-05 0.00142252 5e-05 -0.00937746 0.0226169 -0.0967825 0 0 -5.1365e-09 
100 1 0.000465044 -4.26868e-05 0.00135523 5e-05 -0.0296042 0.0198753 -0.0771501 0 0 -5.1365e-09 
194 1 0.000508989 1.33332e-06 0.00144134 5e-05 0.00119415 0.0320835 -0.0784023 0 0 -5.1365e-09 
339 1 -0.000548766 0.000128552 0.00141452 5e-05 -0.0025492 -0.0172076 -0.0678028 0 0 -5.1365e-09 
184 1 -0.000523692 7.58976e-05 0.00149817 5e-05 -0.00251431 -0.0141553 -0.0556804 0 0 -5.1365e-09 
267 1 -0.000488904 0.000171231 0.00148556 5e-05 0.00457476 0.00645828 -0.0405572 0 0 -5.1365e-09 
179 1 -0.000411762 0.000106841 0.00144957 5e-05 -0.00567097 -0.0237696 -0.068907 0 0 -5.1365e-09 
547 1 0.00033556 0.000121208 0.00135391 5e-05 -0.0203398 0.00838635 -0.0655459 0 0 -5.1365e-09 
371 1 0.00035218 0.000202962 0.00144408 5e-05 -0.0298536 0.00115212 -0.0587394 0 0 -5.1365e-09 
205 1 0.000355235 9.20318e-05 0.00149471 5e-05 0.00353709 -0.00286404 -0.0585343 0 0 -5.1365e-09 
175 1 0.000536418 0.000157854 0.00136912 5e-05 -0.026754 0.00218648 -0.0540798 0 0 -5.1365e-09 
195 1 0.000447276 8.14175e-05 0.00141054 5e-05 0.00306376 -0.0146132 -0.0954575 0 0 -5.1365e-09 
44 1 0.000549545 0.000198596 0.00151895 5e-05 -0.00962727 -0.00723057 -0.0421825 0 0 -5.1365e-09 
297 1 -0.00043795 0.000251779 0.00134467 5e-05 0.0208417 -0.0225638 -0.0861333 0 0 -5.1365e-09 
408 1 -0.000418498 0.00036152 0.00140754 5e-05 -0.00915482 -0.0141322 -0.0675062 0 0 -5.1365e-09 
210 1 -0.000512444 0.000269803 0.0015 5e-05 0.0131574 -0.00424677 -0.0393567 0 0 -5.1365e-09 
273 1 -0.000131093 0.000369434 0.00146712 5e-05 -0.0607363 0.0127432 -0.034237 0 0 -5.1365e-09 
72 1 0.000342779 0.000297183 0.0015122 5e-05 -0.00161096 -0.0137007 -0.0498501 0 0 -5.1365e-09 
290 1 0.000415076 0.000356949 0.0013944 5e-05 0.0058111 0.00528065 -0.0667652 0 0 -5.1365e-09 
444 1 0.000466058 0.000229459 0.00141906 5e-05 -0.00326214 -0.006356 -0.0800801 0 0 -5.1365e-09 
419 1 0.000475646 0.000321579 0.00148037 5e-05 -0.0145099 -0.0210702 -0.0437736 1.04096e-07 -8.57812e-08 -1.4905e-07 
505 1 -0.000414088 0.000418795 0.00149334 5e-05 -0.0304612 -0.0314573 -0.0383326 0 0 -5.1365e-09 
223 1 -0.000305759 0.000505674 0.0015138 5e-05 -0.00830652 -0.0207913 -0.015279 0 0 -5.1365e-09 
394 1 -0.000134349 0.000466178 0.00137085 5e-05 -0.0427002 0.00611165 -0.07969 0 0 -5.1365e-09 
435 1 -0.000202934 0.000500099 0.00151542 5e-05 -0.0294384 0.00388689 -0.0479417 0 0 -5.1365e-09 
88 1 -9.90509e-05 0.000523718 0.00145082 5e-05 -0.0400575 -0.0149768 -0.0626442 0 0 -5.1365e-09 
391 1 0.000391849 0.000417627 0.00147111 5e-05 -0.00747214 -0.00709592 -0.0551884 0 0 -5.1365e-09 
494 1 4.20336e-07 0.00054747 0.00142279 5e-05 -0.0116575 -0.0323694 -0.0449393 0 0 -5.1365e-09 
556 1 -0.000170231 -0.000593442 0.00162008 5e-05 -0.00498628 -0.00357673 0.00504982 0 0 -5.1365e-09 
200 1 -7.0879e-05 -0.000618628 0.00165527 5e-05 0.0197049 0.00874434 0.00459054 0 0 -5.1365e-09 
569 1 2.60893e-05 -0.000617389 0.00163072 5e-05 0.00903682 -0.00338146 -0.0339868 0 0 -5.1365e-09 
373 1 0.000148752 -0.000583625 0.00156717 5e-05 0.0167516 0.0134776 -0.0387415 0 0 -5.1365e-09 
545 1 0.000251667 -0.000560329 0.00159319 5e-05 0.023937 0.00584787 -0.00837304 0 0 -5.1365e-09 
399 1 -0.00043796 -0.000438092 0.00167413 5e-05 0.0031388 0.00329741 -0.0300585 0 0 -5.1365e-09 
516 1 -0.000379069 -0.000473536 0.00155945 5e-05 0.0198803 0.00917529 -0.0374744 0 0 -5.1365e-09 
67 1 -0.000275356 -0.000523236 0.00154826 5e-05 0.0283898 -0.00416639 -0.012758 0 0 -5.1365e-09 
112 1 -0.000347691 -0.000412578 0.00163387 5e-05 0.00462926 0.00919795 -0.0519068 0 0 -5.1365e-09 
335 1 -0.000203684 -0.000453028 0.00155035 5e-05 0.0292142 -0.0107068 0.00660285 0 0 -5.1365e-09 
85 1 -0.000220836 -0.000507121 0.00163815 5e-05 0.0120541 -0.0101488 0.00941214 0 0 -5.1365e-09 
523 1 -8.18476e-05 -0.000434628 0.00155012 5e-05 0.025785 -0.00653245 0.00534038 0 0 -5.1365e-09 
284 1 -0.000120515 -0.000506512 0.001608 5e-05 0.00880841 0.00349842 -0.0019089 0 0 -5.1365e-09 
167 1 -0.000174236 -0.000417083 0.00164252 5e-05 -0.00140751 -0.00330838 0.00249356 0 0 -5.1365e-09 
4 1 -7.06597e-05 -0.000423861 0.00165153 5e-05 0.0121941 -0.0080268 0.00238544 0 0 -5.1365e-09 
375 1 -6.52198e-06 -0.000523366 0.00155223 5e-05 0.00249003 -0.0349814 -0.0110854 0 0 -5.1365e-09 
41 1 2.78591e-05 -0.00044862 0.00167677 5e-05 0.0313984 0.00720109 -0.0240442 0 0 -5.1365e-09 
14 1 9.58295e-05 -0.000497266 0.00158896 5e-05 0.0087896 0.000733572 -0.0110933 0 0 -5.1365e-09 
203 1 0.000122386 -0.00041135 0.00165756 5e-05 0.0149908 -0.00870894 -0.00228544 0 0 -5.1365e-09 
511 1 0.000193434 -0.000489867 0.00163559 5e-05 0.0191717 0.0262232 0.00100478 0 0 -5.1365e-09 
118 1 0.000318753 -0.000484508 0.00153085 5e-05 0.0118888 0.00920578 -0.029451 0 0 -5.1365e-09 
513 1 0.000321458 -0.000528751 0.00167177 5e-05 0.0103026 0.00987056 -0.00877375 0 0 -5.1365e-09 
156 1 0.000327096 -0.000380107 0.00155235 5e-05 0.0184443 0.0230644 -0.00441852 0 0 -5.1365e-09 
102 1 0.000368175 -0.000422356 0.00163684 5e-05 0.0307353 0.0158619 -0.0147843 0 0 -5.1365e-09 
361 1 0.000259753 -0.000416432 0.00166255 5e-05 0.0281753 -0.000922686 -0.0288974 0 0 -5.1365e-09 
255 1 0.000409597 -0.000438705 0.00152716 5e-05 0.0329568 0.0128101 -0.0236235 0 0 -5.1365e-09 
474 1 0.000458813 -0.000393745 0.00166939 5e-05 -0.0020237 0.0232815 -0.0106903 0 0 -5.1365e-09 
430 1 -0.000548695 -0.000229952 0.00154837 5e-05 0.010787 0.0175046 -0.0301821 0 0 -5.1365e-09 
336 1 -0.000407044 -0.000376805 0.00155034 5e-05 0.00723896 0.010232 -0.0676359 0 0 -5.1365e-09 
417 1 -0.000469166 -0.000304821 0.00159901 5e-05 -0.0127921 -0.0100885 -0.0503863 0 0 -5.1365e-09 
368 1 -0.000307955 -0.000341849 0.00154478 5e-05 0.0112213 0.00261314 -0.0421716 0 0 -5.1365e-09 
18 1 -0.000360639 -0.000254966 0.00159313 5e-05 0.00648774 -0.00135388 -0.032891 0 0 -5.1365e-09 
286 1 -0.00025975 -0.000368338 0.00167628 5e-05 -0.0188025 0.0235209 -0.0252576 0 0 -5.1365e-09 
99 1 -0.000190979 -0.000336397 0.00155759 5e-05 0.0079907 0.0159305 -0.00859475 0 0 -5.1365e-09 
544 1 -0.00022242 -0.000281282 0.00163562 5e-05 -0.00700528 -0.0166911 -0.0038729 0 0 -5.1365e-09 
534 1 -0.000114962 -0.000319215 0.0016266 5e-05 0.0235714 -0.00340089 0.0165535 0 0 -5.1365e-09 
81 1 -0.000102081 -0.000251622 0.00155072 5e-05 0.0102477 -0.0282014 0.00964144 0 0 -5.1365e-09 
427 1 -4.43306e-05 -0.000337902 0.00155298 5e-05 0.0193597 -0.00130046 0.0157261 0 0 -5.1365e-09 
554 1 4.36467e-05 -0.000386247 0.00159298 5e-05 0.0206698 -0.023114 -0.00650616 0 0 -5.1365e-09 
104 1 -3.48188e-07 -0.000258344 0.00159488 5e-05 0.0255874 0.00791346 -0.0120295 0 0 -5.1365e-09 
279 1 7.79554e-05 -0.000304819 0.00164523 5e-05 0.0200097 -0.0164263 -0.0206861 0 0 -5.1365e-09 
313 1 -1.41416e-05 -0.000333396 0.00167445 5e-05 0.0120736 0.00616697 -0.0167607 0 0 -5.1365e-09 
131 1 9.91908e-05 -0.000322579 0.00153742 5e-05 0.0540249 -0.0145379 0.0182833 0 0 -5.1365e-09 
236 1 0.000225302 -0.000379782 0.00154951 5e-05 0.00975649 -0.00482097 -0.0295663 0 0 -5.1365e-09 
22 1 0.000177107 -0.000329184 0.00162619 5e-05 0.0323591 -0.00501376 -0.0168851 0 0 -5.1365e-09 
70 1 0.000194571 -0.000256488 0.0015501 5e-05 -0.0071403 0.0100906 0.00475233 0 0 -5.1365e-09 
114 1 0.000299931 -0.00028546 0.00158174 5e-05 -0.00156374 0.0327601 -0.0185962 0 0 -5.1365e-09 
319 1 0.000246899 -0.000263941 0.00166555 5e-05 0.000681062 0.0204377 -0.00941911 0 0 -5.1365e-09 
518 1 0.000478663 -0.000357712 0.00157757 5e-05 0.0107197 0.0254519 -0.0097607 0 0 -5.1365e-09 
150 1 0.000399869 -0.00029638 0.00155102 5e-05 0.0238449 0.0274011 0.0174555 0 0 -5.1365e-09 
52 1 0.000412644 -0.000304391 0.00165197 5e-05 0.007394 0.0328789 0.00568874 0 0 -5.1365e-09 
198 1 0.000465733 -0.000208408 0.00154952 5e-05 0.0072184 0.0398166 -0.0317652 0 0 -5.1365e-09 
93 1 0.000555129 -0.000250058 0.00156701 5e-05 -0.0109636 0.022262 -0.0129342 0 0 -5.1365e-09 
31 1 -0.000574633 -0.00013493 0.00157545 5e-05 -0.0292084 -0.0215693 -0.0811955 0 0 -5.1365e-09 
263 1 -0.000429396 -0.000130116 0.0015542 5e-05 -0.00454972 -0.00914373 -0.0650247 0 0 -5.1365e-09 
470 1 -0.000512418 -0.000194321 0.00164399 5e-05 -0.00464599 0.00924721 -0.056962 0 0 -5.1365e-09 
333 1 -0.00048323 -8.70015e-05 0.00165348 5e-05 -0.0158659 -0.0147092 -0.0598468 0 0 -5.1365e-09 
63 1 -0.000312861 -0.000164638 0.00159654 5e-05 -0.0044948 0.0122377 -0.0550529 0 0 -5.1365e-09 
270 1 -0.000336189 -8.35727e-05 0.00166495 5e-05 0.0463391 0.0140443 -0.0417931 0 0 -5.1365e-09 
43 1 -0.000205417 -0.000222139 0.00154418 5e-05 0.00843777 0.018585 -0.0304083 0 0 -5.1365e-09 
80 1 -0.000219957 -0.000113637 0.00153554 5e-05 -0.00810392 0.0207283 -0.0251006 0 0 -5.1365e-09 
309 1 -0.000117944 -0.000164853 0.00160237 5e-05 9.44334e-05 -0.0124741 -0.00909389 0 0 -5.1365e-09 
271 1 -0.000148833 -0.000218401 0.00168643 5e-05 -0.00347908 0.000631427 0.00447657 0 0 -5.1365e-09 
40 1 -8.59897e-05 -8.48347e-05 0.0015504 5e-05 0.00268294 -0.00195532 -0.00378613 0 0 -5.1365e-09 
154 1 -0.000225524 -0.000158586 0.00165115 5e-05 -0.0229047 -0.0240879 -0.0192271 0 0 -5.1365e-09 
555 1 -1.82478e-05 -0.000162428 0.00155266 5e-05 0.00975111 0.00222606 0.00105355 0 0 -5.1365e-09 