ITEM: TIMESTEP
15000
ITEM: NUMBER OF ATOMS
571
ITEM: BOX BOUNDS ff ff ff
-0.001 0.001
-0.001 0.001
0 0.004
ITEM: ATOMS id type x y z radius vx vy vz fx fy fz 
526 1 0.000320172 -0.000306805 0.000918107 5e-05 -0.0314763 0.0342967 -0.119281 0 0 -5.1365e-09 
209 1 -0.000248586 0.000111032 0.000841542 5e-05 0.0181101 -0.0378152 -0.185356 0 0 -5.1365e-09 
252 1 -0.000338951 0.000166738 0.000917112 5e-05 0.00470089 -0.00667097 -0.1697 0 0 -5.1365e-09 
529 1 0.000192437 0.000392328 0.000894605 5e-05 -0.0383846 -0.0740935 -0.0775653 0 0 -5.1365e-09 
453 1 -0.000228905 -0.000392299 0.00103818 5e-05 0.0382751 0.0272204 -0.097682 0 0 -5.1365e-09 
551 1 3.71641e-05 -0.000408128 0.000932706 5e-05 0.073647 -0.0171856 -0.152327 0 0 -5.1365e-09 
328 1 0.000122656 -0.000391068 0.00100366 5e-05 -0.0452049 0.00674861 -0.137053 0 0 -5.1365e-09 
242 1 -0.000100247 -0.000277228 0.000998257 5e-05 0.0697022 0.0314788 -0.141397 0 0 -5.1365e-09 
73 1 0.000233073 -0.000377775 0.00106566 5e-05 -0.0116327 0.00846284 -0.120128 0 0 -5.1365e-09 
322 1 0.00024102 -0.000258004 0.00107447 5e-05 -0.0430324 0.046251 -0.132806 0 0 -5.1365e-09 
199 1 0.00036521 -0.000266017 0.00105606 5e-05 -0.0399536 0.0508464 -0.106429 0 0 -5.1365e-09 
250 1 0.000113481 -0.000226358 0.00106964 5e-05 -0.0419036 0.0383626 -0.147482 0 0 -5.1365e-09 
36 1 0.000192881 -0.000155861 0.00107454 5e-05 -0.037689 0.0126158 -0.14364 0 0 -5.1365e-09 
318 1 0.000379889 -0.000226116 0.000947047 5e-05 -0.0829733 0.0201769 -0.0648412 0 0 -5.1365e-09 
24 1 0.000428068 -0.0001783 0.00107446 5e-05 -0.00395419 0.0252153 -0.126378 0 0 -5.1365e-09 
468 1 -0.000461992 2.9778e-05 0.000952096 5e-05 -0.0203541 -0.0251807 -0.159644 0 0 -5.1365e-09 
182 1 -0.000359629 6.82996e-05 0.00100391 5e-05 0.00839787 -0.0229244 -0.144557 0 0 -5.1365e-09 
490 1 0.000420462 -7.24623e-05 0.000984766 5e-05 -0.0512664 0.0141768 -0.121285 0 0 -5.1365e-09 
186 1 0.000452679 4.76986e-05 0.000980087 5e-05 0.00462795 0.0211764 -0.153635 0 0 -5.1365e-09 
243 1 -0.000433527 0.000142585 0.00101099 5e-05 -0.00692011 -0.0130022 -0.122699 0 0 -5.1365e-09 
353 1 -0.000154697 0.000203798 0.000950944 5e-05 0.000644034 -0.000277811 -0.147449 0 0 -5.1365e-09 
235 1 -0.000229138 0.000122628 0.00105642 5e-05 0.00101419 -0.0150421 -0.150472 0 0 -5.1365e-09 
308 1 -0.000301708 0.000271774 0.000990312 5e-05 -0.0144846 -0.0426991 -0.135802 0 0 -5.1365e-09 
157 1 -0.000209925 0.000255389 0.0010608 5e-05 0.0393686 -0.0591027 -0.14933 0 0 -5.1365e-09 
425 1 -0.000173141 0.000393999 0.00104191 5e-05 0.0307473 -0.0265059 -0.12859 0 0 -5.1365e-09 
422 1 0.000225332 0.000429663 0.00105127 5e-05 -0.0471263 -0.0204563 -0.105925 0 0 -5.1365e-09 
89 1 -0.000159472 -0.000443565 0.00110958 5e-05 0.0584456 0.0254538 -0.122015 0 0 -5.1365e-09 
528 1 0.000240776 -0.000463573 0.00122089 5e-05 -0.0363162 0.00565259 -0.091055 0 0 -5.1365e-09 
558 1 0.000312114 -0.0003882 0.00117036 5e-05 -0.0262713 -0.0211284 -0.0914758 0 0 -5.1365e-09 
379 1 -0.000305802 -0.000334441 0.00119116 5e-05 0.0352849 0.0118298 -0.0903123 0 0 -5.1365e-09 
23 1 0.000170251 -0.000376809 0.00115947 5e-05 -0.0615316 0.0088863 -0.0971484 0 0 -5.1365e-09 
251 1 0.000176758 -0.000255214 0.00119735 5e-05 -0.0585119 -0.000349832 -0.115541 0 0 -5.1365e-09 
299 1 0.000281338 -0.000268417 0.00118586 5e-05 -0.011593 0.0273979 -0.121989 0 0 -5.1365e-09 
222 1 0.000387199 -0.000275847 0.00115649 5e-05 -0.0121817 0.0197737 -0.121473 0 0 -5.1365e-09 
508 1 0.000339486 -0.000169828 0.00113536 5e-05 -0.032729 0.0397472 -0.113953 0 0 -5.1365e-09 
350 1 0.00047049 -8.53915e-05 0.00108588 5e-05 0.0119072 0.0047347 -0.11101 0 0 -5.1365e-09 
37 1 0.00046106 -0.000201409 0.00120579 5e-05 -0.0715459 0.0225367 -0.0668559 0 0 -5.1365e-09 
367 1 -0.000485552 7.22658e-05 0.0011154 5e-05 -0.0288585 -0.0263706 -0.0960886 0 0 -5.1365e-09 
285 1 -0.00037618 4.89497e-05 0.00114675 5e-05 0.0692519 -0.0312145 -0.121656 0 0 -5.1365e-09 
132 1 0.000327164 -4.74825e-05 0.00118488 5e-05 0.0041427 0.0134566 -0.121444 0 0 -5.1365e-09 
509 1 -0.000461941 0.00017734 0.00112152 5e-05 0.0370161 -0.0332426 -0.114434 0 0 -5.1365e-09 
326 1 -0.000351196 0.000155603 0.00107838 5e-05 0.0602108 -0.0447425 -0.142985 -1.92249e-06 -4.91687e-07 -1.88172e-06 
485 1 -0.000301953 0.000154792 0.00116524 5e-05 0.0198875 -0.0284694 -0.104828 1.92249e-06 4.91687e-07 1.87145e-06 
482 1 -0.000446464 0.000254789 0.00118664 5e-05 0.0236342 -0.0210915 -0.133506 0 0 -5.1365e-09 
471 1 -0.000360932 0.000269201 0.0011227 5e-05 0.0354857 -0.0546342 -0.0820966 -1.67529e-06 2.10508e-07 -1.80111e-06 
128 1 -0.000309711 0.000359697 0.00108932 5e-05 0.018486 -0.0322747 -0.0982813 0 0 -5.1365e-09 
183 1 -0.000277557 0.000271189 0.00117765 5e-05 0.0495609 -0.0283135 -0.160439 1.67529e-06 -2.10508e-07 1.79084e-06 
475 1 -0.000107468 0.000244739 0.00114405 5e-05 0.0861921 -0.0290521 -0.0907154 0 0 -5.1365e-09 
115 1 -0.000165841 0.000293574 0.0012216 5e-05 0.0414637 -0.0104724 -0.101413 0 0 -5.1365e-09 
57 1 0.000218182 0.000298135 0.00113195 5e-05 -0.0395586 -0.0222407 -0.118507 0 0 -5.1365e-09 
493 1 0.000363405 0.000282168 0.00115053 5e-05 -0.0215535 -0.0276797 -0.0991525 0 0 -5.1365e-09 
384 1 -0.000113186 0.000490983 0.00122736 5e-05 0.0257253 0.00980323 -0.0764438 0 0 -5.1365e-09 
473 1 -0.000270153 -0.000446727 0.0013456 5e-05 0.0117514 -0.00577641 -0.0771501 0 0 -5.1365e-09 
489 1 -0.000127779 -0.000422107 0.00132807 5e-05 0.0474929 -0.0306657 -0.108046 0 0 -5.1365e-09 
196 1 -2.79233e-05 -0.000510936 0.00132187 5e-05 0.0458865 0.00744361 -0.105978 0 0 -5.1365e-09 
401 1 0.00012456 -0.000447511 0.00124854 5e-05 -0.04507 0.0396533 -0.0522958 0 0 -5.1365e-09 
402 1 0.000326409 -0.000424848 0.00128049 5e-05 -0.0254606 0.0451173 -0.0426914 0 0 -5.1365e-09 
291 1 0.000242687 -0.000457011 0.00138059 5e-05 0.0409764 0.0411969 -0.0775823 0 0 -5.1365e-09 
305 1 -3.6933e-05 -0.00031708 0.00137378 5e-05 0.0678875 0.0125076 -0.0708287 0 0 -5.1365e-09 
381 1 0.000334803 -0.000298595 0.00128282 5e-05 0.00912718 0.0206313 -0.11563 0 0 -5.1365e-09 
541 1 0.000231148 -0.00028946 0.00128234 5e-05 0.0142632 -0.028727 -0.120721 0 0 -5.1365e-09 
13 1 0.000439384 -0.000283874 0.00127543 5e-05 -0.00879173 0.0103023 -0.148557 0 0 -5.1365e-09 
331 1 0.00041087 -0.000368005 0.00133793 5e-05 -0.037281 0.0136767 -0.0765704 0 0 -5.1365e-09 
434 1 0.000395358 -0.000246129 0.00136654 5e-05 -0.0063552 0.0425427 -0.138959 0 0 -5.1365e-09 
168 1 -0.000546053 -0.000114177 0.00137804 5e-05 0.0230327 -0.0611071 -0.113464 0 0 -5.1365e-09 
86 1 0.00034362 -0.000146905 0.00127764 5e-05 -0.0770367 0.040116 -0.0633272 0 0 -5.1365e-09 
25 1 0.000264999 -0.000179171 0.00138132 5e-05 0.0144267 -0.0205329 -0.122922 0 0 -5.1365e-09 
136 1 0.000517505 -0.000202734 0.00135014 5e-05 0.00536453 0.0134372 -0.123618 0 0 -5.1365e-09 
239 1 -0.000452786 2.14416e-05 0.00135208 5e-05 0.0018649 0.00359861 -0.116161 0 0 -5.1365e-09 
153 1 -0.000227 1.96324e-05 0.00128517 5e-05 -0.00443353 -0.0346912 -0.0986828 0 0 -5.1365e-09 
459 1 0.000356508 -5.10383e-05 0.00136439 5e-05 0.0197443 0.00952287 -0.103394 0 0 -5.1365e-09 
50 1 0.000537421 -2.8653e-05 0.00127625 5e-05 -0.0370845 0.0306759 -0.0684565 0 0 -5.1365e-09 
441 1 0.000483021 2.37153e-05 0.00135403 5e-05 -0.0313206 0.055217 -0.0465816 0 0 -5.1365e-09 
463 1 -0.000477834 0.000164773 0.00126864 5e-05 -0.0348309 0.00983904 -0.119608 0 0 -5.1365e-09 
321 1 -0.000411819 8.12324e-05 0.00127726 5e-05 -0.000711212 -0.0449346 -0.12416 0 0 -5.1365e-09 
49 1 -0.000357975 0.000155331 0.00136426 5e-05 0.072074 -0.0282009 -0.0802987 0 0 -5.1365e-09 
213 1 -0.000216559 0.000165477 0.0013668 5e-05 0.0190519 -0.0154975 -0.0860444 0 0 -5.1365e-09 
123 1 -0.00047696 0.000259669 0.00130236 5e-05 -0.0147644 -0.0442338 -0.122126 0 0 -5.1365e-09 
393 1 -0.000426468 0.000345696 0.00133634 5e-05 -0.010994 -0.0122559 -0.103498 0 0 -5.1365e-09 
10 1 -0.000380219 0.000332761 0.0012394 5e-05 0.00047608 -0.00992987 -0.107975 0 0 -5.1365e-09 
311 1 -0.00031081 0.000269713 0.00127599 5e-05 0.0385044 -0.0223377 -0.142487 0 0 -5.1365e-09 
108 1 -0.000237923 0.000352616 0.00135459 5e-05 0.0230341 -0.0450484 -0.0843585 0 0 -5.1365e-09 
90 1 0.000217489 0.000367293 0.00123176 5e-05 0.00805711 -0.0362823 -0.118582 0 0 -5.1365e-09 
537 1 -0.000347924 0.000407963 0.0013222 5e-05 -0.00471223 -0.0313155 -0.0859668 0 0 -5.1365e-09 
60 1 0.00019801 0.000492588 0.00128186 5e-05 -0.0383834 -0.0548277 -0.0700614 0 0 -5.1365e-09 
358 1 0.000147694 0.000424369 0.00137142 5e-05 -0.0344623 -0.0245495 -0.089061 0 0 -5.1365e-09 
9 1 -0.000201014 -0.000549084 0.00152268 5e-05 0.0812142 0.0519616 0.0307375 0 0 -5.1365e-09 
107 1 0.000187641 -0.000551158 0.00146374 5e-05 0.0457662 0.00791633 -0.0254582 0 0 -5.1365e-09 
113 1 -0.000436579 -0.000397474 0.00151996 5e-05 -0.0022189 -0.0271206 -0.0404001 0 0 -5.1365e-09 
42 1 -0.000120727 -0.000536374 0.00142401 5e-05 0.0287819 0.0788691 -0.0648896 0 0 -5.1365e-09 
549 1 -0.000100232 -0.000401775 0.00146195 5e-05 0.0204397 -0.0219924 -0.0863388 0 0 -5.1365e-09 
538 1 1.61957e-06 -0.000429694 0.00144031 5e-05 0.0770698 0.0508823 -0.0452386 0 0 -5.1365e-09 
317 1 -5.4389e-05 -0.000531536 0.0015263 5e-05 0.0210982 -0.0157481 -0.0583839 0 0 -5.1365e-09 
296 1 0.000332379 -0.000467653 0.00143537 5e-05 -0.0344042 -7.56276e-05 -0.0828867 -1.88733e-06 5.11392e-06 4.26184e-06 
159 1 0.000419831 -0.000391652 0.00149142 5e-05 -0.00512405 0.0154703 -0.105564 0 0 -5.1365e-09 
227 1 -0.000487315 -0.00030139 0.00148371 5e-05 -0.00837957 -0.0346423 -0.0278189 0 0 -5.1365e-09 
141 1 0.000317403 -0.000338408 0.00144369 5e-05 0.0308128 -0.00193922 -0.0661441 0 0 -5.1365e-09 
78 1 0.00028804 -0.000239171 0.0014751 5e-05 0.00805904 -0.0151341 -0.0889342 0 0 -5.1365e-09 
35 1 0.000503591 -0.000283896 0.00147472 5e-05 -0.0333227 0.0676327 -0.0653179 0 0 -5.1365e-09 
449 1 -0.000423823 -0.000208982 0.00138656 5e-05 0.0559059 0.0356363 -0.0572693 0 0 -5.1365e-09 
342 1 -0.000452747 -0.000205892 0.00150711 5e-05 0.00675542 0.0509256 -0.0534491 0 0 -5.1365e-09 
281 1 -0.000377092 -0.000126187 0.00149514 5e-05 -0.018053 0.00129406 -0.0778727 0 0 -5.1365e-09 
17 1 0.00035296 -0.000140329 0.00141314 5e-05 -0.0442871 0.0315632 -0.0995454 0 0 -5.1365e-09 
170 1 0.000236647 -0.000135247 0.001523 5e-05 0.0805285 0.0443658 -0.00297495 0 0 -5.1365e-09 
121 1 0.000453592 -0.000189477 0.00143445 5e-05 0.0361305 -0.0181552 -0.100238 0 0 -5.1365e-09 
457 1 0.000474984 -8.77702e-05 0.00143806 5e-05 0.0432258 0.0255849 -0.117865 0 0 -5.1365e-09 
447 1 0.000550007 -0.0001871 0.00150273 5e-05 -0.0379506 0.00587139 -0.103125 0 0 -5.1365e-09 
387 1 -0.000562544 2.67372e-05 0.0013901 5e-05 0.0508688 -0.0138813 -0.0769137 -3.52674e-06 1.68147e-07 -1.93196e-06 
429 1 -0.000552222 -6.13304e-05 0.0015073 5e-05 -0.0345108 0.0397146 -0.0454378 0 0 -5.1365e-09 
438 1 -0.000587945 7.33384e-05 0.00153777 5e-05 0.00331761 -0.030992 -0.0280625 0 0 -5.1365e-09 
363 1 -0.00048441 -4.46404e-06 0.00144376 5e-05 0.0335789 -0.0333881 -0.130589 2.61096e-06 2.84651e-06 -8.77651e-07 
160 1 -0.000447003 -4.79293e-05 0.00152541 5e-05 0.0137581 -0.0121228 -0.114308 9.1578e-07 -3.01466e-06 2.7942e-06 
92 1 -0.000289111 -4.49377e-05 0.00146808 5e-05 0.00584204 0.0120943 -0.0853851 0 0 -5.1365e-09 
30 1 -0.000341582 2.17857e-05 0.00152613 5e-05 -0.0374524 0.00812452 -0.105567 0 0 -5.1365e-09 
142 1 -0.000248946 6.46115e-05 0.00153394 5e-05 -0.0215566 -0.0156027 -0.0946111 0 0 -5.1365e-09 
454 1 0.000229099 -1.66763e-05 0.00152917 5e-05 0.0189799 0.00654339 -0.0776325 0 0 -5.1365e-09 
91 1 0.000269667 -6.0474e-05 0.00141892 5e-05 0.0363031 0.0146872 -0.111855 0 0 -5.1365e-09 
256 1 0.000287669 5.0307e-05 0.00148203 5e-05 0.0153443 0.0202511 -0.0667237 0 0 -5.1365e-09 
261 1 0.000345372 -5.49278e-05 0.00150537 5e-05 0.0187995 0.00785571 -0.105924 0 0 -5.1365e-09 
287 1 0.000419152 3.39906e-05 0.00145776 5e-05 0.0411017 -0.0182884 -0.101044 0 0 -5.1365e-09 
266 1 0.000571128 -5.99606e-05 0.00145021 5e-05 -0.0652793 -0.00318074 -0.0156162 0 0 -5.1365e-09 
26 1 -0.000547203 0.000132925 0.00143932 5e-05 -0.000585201 -0.0124879 -0.0616902 0 0 -5.1365e-09 
75 1 -0.000486034 0.000101165 0.0015171 5e-05 0.0173503 -0.045542 -0.0950299 0 0 -5.1365e-09 
421 1 -0.000461573 0.000199674 0.00149839 5e-05 -0.0410599 -0.0289742 -0.0854969 3.67521e-07 -6.28617e-07 -1.25217e-07 
383 1 -0.000378181 0.000100895 0.00144762 5e-05 -0.040668 -0.0250991 -0.114856 0 0 -5.1365e-09 
564 1 -0.000248031 7.8254e-05 0.00143086 5e-05 -0.0139631 -0.0140303 -0.09846 0 0 -5.1365e-09 
126 1 -0.000364674 0.000226008 0.00145732 5e-05 -0.0306771 -0.0534247 -0.105956 0 0 -5.1365e-09 
497 1 0.000439942 0.000134476 0.00144365 5e-05 0.00677934 0.0223466 -0.0828468 0 0 -5.1365e-09 
282 1 0.000522446 0.000195759 0.00151762 5e-05 0.0439408 -0.0376627 -0.0654488 0 0 -5.1365e-09 
84 1 0.000559646 8.72439e-05 0.0014395 5e-05 -0.0317647 -0.00838284 -0.0463629 0 0 -5.1365e-09 
61 1 -0.000452117 0.000243442 0.00139987 5e-05 -0.0125974 -0.0476167 -0.103745 0 0 -5.1365e-09 
320 1 -0.000422742 0.000382835 0.00143752 5e-05 0.0448586 -0.039389 -0.0871485 0 0 -5.1365e-09 
226 1 -0.000506968 0.000288615 0.00150284 5e-05 -0.00410379 0.00603678 -0.0619742 -3.67521e-07 6.28617e-07 1.14944e-07 
47 1 -0.000402193 0.000299609 0.00151564 5e-05 -0.0405033 -0.059541 -0.124795 0 0 -5.1365e-09 
388 1 -0.000342564 0.000294585 0.00138791 5e-05 -0.0126361 -0.0338107 -0.111413 0 0 -5.1365e-09 
507 1 -0.000289679 0.000263684 0.00151356 5e-05 -0.0306063 -0.00157608 -0.0504651 0 0 -5.1365e-09 
87 1 -0.000327111 0.000367586 0.00147304 5e-05 -0.0401519 -0.0515204 -0.09342 0 0 -5.1365e-09 
181 1 9.32229e-05 0.000374328 0.00151574 5e-05 -0.0547761 0.0203399 -0.0227159 0 0 -5.1365e-09 
74 1 0.000481496 0.000288587 0.00141135 5e-05 -0.020234 -0.0194141 -0.0777503 0 0 -5.1365e-09 
389 1 -0.000361265 0.000469314 0.00151461 5e-05 0.0122388 -0.0397967 -0.0809337 0 0 -5.1365e-09 
560 1 -0.000208024 0.000497247 0.00140134 5e-05 0.0607996 -0.0452772 -0.092656 0 0 -5.1365e-09 
174 1 5.56269e-05 0.000473594 0.00150148 5e-05 -0.0364753 0.0464245 -0.0435685 0 0 -5.1365e-09 
476 1 0.000184995 0.000528358 0.00142256 5e-05 -0.0197604 -0.0460362 -0.0550355 0 0 -5.1365e-09 
140 1 0.000155056 0.000486202 0.0015139 5e-05 -0.057191 0.00797286 -0.0718742 0 0 -5.1365e-09 
228 1 0.000242618 0.000389004 0.0013982 5e-05 -0.0439509 -0.0505929 -0.0391202 0 0 -5.1365e-09 
218 1 0.000378426 0.000432039 0.00148048 5e-05 -0.0192395 -0.00584947 -0.0301129 0 0 -5.1365e-09 
548 1 -1.40319e-05 0.000600799 0.00152944 5e-05 -0.0202785 0.000750774 -0.0271318 0 0 -5.1365e-09 
502 1 8.84893e-05 0.000569759 0.00146447 5e-05 -0.0145302 -0.0750896 -0.0150215 0 0 -5.1365e-09 
207 1 -0.000157486 -0.000589812 0.0016107 5e-05 0.0594977 0.00970885 -0.0782332 0 0 -5.1365e-09 
553 1 1.04759e-06 -0.000612949 0.00156943 5e-05 0.0210751 -0.00154605 -0.0121313 0 0 -5.1365e-09 
569 1 -3.53204e-07 -0.000588956 0.00169184 5e-05 3.04262e-05 -0.0253698 0.0117326 0 0 -5.1365e-09 
298 1 0.000102322 -0.000586019 0.00154435 5e-05 0.0404052 0.00510926 -0.0167713 0 0 -5.1365e-09 
373 1 0.000111022 -0.000595694 0.00164745 5e-05 -0.0175463 0.00941988 0.0505223 0 0 -5.1365e-09 
118 1 0.000243631 -0.000544797 0.00155011 5e-05 -0.0270529 0.0268868 -0.0394281 0 0 -5.1365e-09 
513 1 0.000278869 -0.000568583 0.00168348 5e-05 0.0409878 0.0383903 -0.0282208 0 0 -5.1365e-09 
68 1 -0.000390772 -0.000402705 0.0016152 5e-05 -0.010545 -0.0275303 -0.0239311 0 0 -5.1365e-09 
516 1 -0.000413196 -0.000480928 0.00169188 5e-05 0.00765812 0.0088327 -0.0308816 0 0 -5.1365e-09 
67 1 -0.000361048 -0.000489575 0.00157534 5e-05 0.00762829 -0.0170386 0.0136596 0 0 -5.1365e-09 
283 1 -0.000273988 -0.000473857 0.00162359 5e-05 0.0284067 -0.0145572 -0.0318298 0 0 -5.1365e-09 
335 1 -0.00030569 -0.000402432 0.00155476 5e-05 -0.0146852 -0.0204833 -0.031094 0 0 -5.1365e-09 
523 1 -0.000183825 -0.000428162 0.00155113 5e-05 0.0503399 -0.0295009 -0.0493097 0 0 -5.1365e-09 
375 1 -0.000116376 -0.000485197 0.0016129 5e-05 -0.00160942 -0.00301634 -0.0261279 0 0 -5.1365e-09 
284 1 -0.000194347 -0.000438179 0.00167761 5e-05 0.0190229 -0.011755 -0.0411633 0 0 -5.1365e-09 
536 1 4.11949e-05 -0.000514623 0.00158923 5e-05 0.0213572 0.0158961 -0.0349639 1.29221e-06 -2.05723e-06 -2.1845e-06 
382 1 5.37269e-05 -0.00040329 0.00155145 5e-05 0.0276082 -0.00286005 -0.045589 0 0 -5.1365e-09 
3 1 -3.94994e-05 -0.000411572 0.00158765 5e-05 -0.00456906 -0.0135028 -0.0675821 0 0 -5.1365e-09 
203 1 4.15602e-05 -0.000403012 0.00165455 5e-05 0.0370371 -0.0160015 -0.00240146 0 0 -5.1365e-09 
14 1 -1.90098e-05 -0.000491516 0.00166545 5e-05 -0.0176621 -0.02969 -0.0614242 -1.29221e-06 2.05723e-06 2.17423e-06 
188 1 0.000142538 -0.000487475 0.00155454 5e-05 0.0937772 -0.000366701 -0.00419164 0 0 -5.1365e-09 
545 1 0.000185298 -0.000527884 0.00164418 5e-05 0.0572894 0.0095284 0.0236765 0 0 -5.1365e-09 
236 1 0.000144919 -0.000389153 0.0015923 5e-05 0.0338573 0.00600027 -0.00541117 0 0 -5.1365e-09 
156 1 0.000238488 -0.000430709 0.00155799 5e-05 0.0105745 -0.040593 0.0315896 0 0 -5.1365e-09 
316 1 0.000341098 -0.000410702 0.00155759 5e-05 0.0138251 -0.000215874 -0.0485004 0 0 -5.1365e-09 
255 1 0.00036809 -0.000475924 0.00163338 5e-05 0.00238212 0.060038 -0.0340238 0 0 -5.1365e-09 
102 1 0.000273749 -0.000454627 0.0016597 5e-05 0.0222791 -0.0575123 -0.0606771 0 0 -5.1365e-09 
166 1 0.000443192 -0.000414036 0.0015963 5e-05 0.0757288 0.00153527 -0.08823 0 0 -5.1365e-09 
514 1 -0.000510108 -0.000301879 0.00158588 5e-05 -0.0341635 -0.0103573 -0.0526952 0 0 -5.1365e-09 
29 1 -0.000401416 -0.000304894 0.00155643 5e-05 -0.01429 -0.0416916 -0.024849 0 0 -5.1365e-09 
295 1 -0.000415833 -0.000269953 0.00166261 5e-05 0.0448031 0.0765007 -0.0437623 0 0 -5.1365e-09 
237 1 -0.00047852 -0.000383226 0.00167812 5e-05 -0.00432708 -0.0164421 -0.0698653 0 0 -5.1365e-09 
99 1 -0.000265926 -0.000309547 0.00155007 5e-05 -0.00553112 -0.0226147 0.00980903 0 0 -5.1365e-09 
167 1 -0.000231907 -0.000345189 0.00164089 5e-05 0.0371709 -0.0260029 0.00203332 -1.5855e-07 -3.2088e-07 -8.85312e-08 
400 1 -0.000332173 -0.000244241 0.0015973 5e-05 0.00967577 -0.00655309 0.0303808 0 0 -5.1365e-09 
368 1 -0.000325998 -0.000344593 0.00167985 5e-05 -0.0114709 -0.0111162 -0.0383995 0 0 -5.1365e-09 
544 1 -0.000268194 -0.000236021 0.0016757 5e-05 -0.0191326 -0.0448564 -0.0373821 0 0 -5.1365e-09 
534 1 -0.000182245 -0.000261421 0.00161824 5e-05 0.0261487 -0.0342567 -0.0312069 1.5855e-07 3.2088e-07 7.82582e-08 
4 1 -0.000128289 -0.000373405 0.00161753 5e-05 -0.00258857 0.0158707 -0.0232758 0 0 -5.1365e-09 
427 1 -8.92691e-05 -0.000308217 0.00155049 5e-05 -0.0058962 -0.0293789 0.0114076 0 0 -5.1365e-09 
131 1 4.09472e-05 -0.000285883 0.00155069 5e-05 -0.00174374 -0.0100648 0.0117087 0 0 -5.1365e-09 
554 1 -2.46304e-05 -0.00031826 0.00162716 5e-05 0.00697396 -0.0281375 -0.00330422 0 0 -5.1365e-09 
22 1 9.43543e-05 -0.000309948 0.00163473 5e-05 -0.0134008 -0.0141602 0.00661174 0 0 -5.1365e-09 
70 1 0.00018221 -0.000299311 0.00155366 5e-05 0.000362386 0.0226239 -0.00585054 0 0 -5.1365e-09 
361 1 0.000167396 -0.000369478 0.0016882 5e-05 0.0313501 -0.0258546 0.000873792 0 0 -5.1365e-09 
114 1 0.000245861 -0.00034179 0.00161835 5e-05 0.00549282 0.0174045 0.0229917 0 0 -5.1365e-09 
496 1 0.000374414 -0.000326427 0.00160223 5e-05 0.0539863 0.0101879 -0.0837664 0 0 -5.1365e-09 
448 1 0.000361801 -0.000234657 0.00155054 5e-05 0.0229767 0.00435463 -0.138445 0 0 -5.1365e-09 
386 1 0.000299051 -0.000275063 0.00168453 5e-05 0.0409875 -0.00727691 -0.0531151 0 0 -5.1365e-09 
258 1 0.000529425 -0.000294631 0.00157997 5e-05 -0.0273303 0.072043 -0.052817 0 0 -5.1365e-09 
215 1 0.000424457 -0.000245233 0.00164457 5e-05 0.0338799 -0.0124472 -0.128972 6.16253e-07 -1.01751e-06 -3.71987e-07 
93 1 0.000531503 -0.000286108 0.00168891 5e-05 0.0693307 -0.0411255 -0.116892 0 0 -5.1365e-09 
337 1 -0.000558652 -0.000168724 0.00154699 5e-05 0.0203237 0.0481957 -0.0420883 0 0 -5.1365e-09 
51 1 -0.000481061 -0.000203478 0.00160321 5e-05 0.0650702 0.022721 -0.0517212 0 0 -5.1365e-09 
165 1 -0.000497367 -0.000104384 0.00160225 5e-05 0.0172556 0.00647407 -0.0740733 0 0 -5.1365e-09 
43 1 -0.000243767 -0.000211722 0.00155471 5e-05 -0.014218 0.00168255 0.0134147 0 0 -5.1365e-09 
343 1 -0.000247892 -0.000147682 0.00163302 5e-05 -0.0308678 -0.0101088 -0.0115009 0 0 -5.1365e-09 
191 1 -0.000383195 -0.000166049 0.00164829 5e-05 0.0184635 0.00282027 -0.0731757 0 0 -5.1365e-09 
397 1 -0.000317311 -9.14628e-05 0.00168918 5e-05 -0.0581352 0.00118901 -0.0358913 0 0 -5.1365e-09 
80 1 -0.000194641 -0.000124 0.00155018 5e-05 0.0130498 0.0269162 -0.01481 -1.34281e-06 -6.12028e-07 -1.14899e-06 
81 1 -0.000132606 -0.000204258 0.00155011 5e-05 -0.00242951 0.0043246 -0.0125597 0 0 -5.1365e-09 
309 1 -0.000128215 -0.000135063 0.00162397 5e-05 0.00168566 -0.0142673 0.00192985 1.34281e-06 6.12028e-07 1.13872e-06 
555 1 -5.8272e-05 -0.000135209 0.00155103 5e-05 0.00125469 -0.0129979 0.0101356 0 0 -5.1365e-09 
405 1 4.13665e-05 -0.000115555 0.00155292 5e-05 0.00476859 -0.0013999 0.0136022 0 0 -5.1365e-09 
376 1 4.38257e-05 -0.00020342 0.00161049 5e-05 0.035327 -0.0304929 -0.0517736 0 0 -5.1365e-09 
104 1 -5.62914e-05 -0.000212556 0.00161443 5e-05 0.0291235 -0.0100623 -0.0257895 0 0 -5.1365e-09 
20 1 3.78407e-05 -0.000133682 0.00168257 5e-05 0.00156766 -0.0192644 -0.0333439 0 0 -5.1365e-09 
414 1 0.000126167 -0.000206324 0.00155247 5e-05 -0.00378742 -0.000515167 0.0284802 0 0 -5.1365e-09 
293 1 0.000143946 -0.000196161 0.00165294 5e-05 -0.00859643 0.00220976 0.0258097 0 0 -5.1365e-09 
98 1 0.000140902 -9.51451e-05 0.00155418 5e-05 0.0143906 -0.00559002 -0.0233957 0 0 -5.1365e-09 
77 1 0.000187143 -9.68454e-05 0.00164951 5e-05 0.0324119 0.0139731 -0.0451313 0 0 -5.1365e-09 
155 1 0.000261618 -0.000221689 0.00157174 5e-05 0.0195584 -0.0228801 -0.094155 0 0 -5.1365e-09 
330 1 0.000310934 -0.000121185 0.00159399 5e-05 0.0234121 -0.0154601 -0.087394 0 0 -5.1365e-09 
467 1 0.000302092 -9.42281e-05 0.00169209 5e-05 0.0313739 -0.0180126 -0.0682374 1.02388e-06 -8.04318e-07 -4.70987e-07 
274 1 0.000464004 -0.000211886 0.00154856 5e-05 0.0221189 0.00279678 -0.0487901 0 0 -5.1365e-09 
340 1 0.00044038 -7.70213e-05 0.00155215 5e-05 0.0399217 0.00210516 -0.0982485 0 0 -5.1365e-09 
325 1 0.000386577 -0.000153336 0.00165491 5e-05 0.0355218 -0.023021 -0.125144 -6.16253e-07 1.01751e-06 3.61714e-07 
100 1 0.000459692 -9.0595e-05 0.00168404 5e-05 0.0186399 -0.0426988 -0.08986 0 0 -5.1365e-09 
27 1 0.000541987 -0.000177096 0.00160226 5e-05 0.00754433 0.00719478 -0.0454827 0 0 -5.1365e-09 
355 1 -0.0005986 -6.43405e-05 0.00160612 5e-05 -0.00643852 0.0438517 -0.0585332 0 0 -5.1365e-09 
45 1 -0.000505715 1.68472e-05 0.0015759 5e-05 0.047743 -0.0228053 -0.0794453 0 0 -5.1365e-09 
204 1 -0.000259626 1.92693e-05 0.0016439 5e-05 -0.0469919 -0.0179941 -0.0499194 0 0 -5.1365e-09 
312 1 -0.000371642 -1.63415e-05 0.00164999 5e-05 -0.0396531 -0.00168617 -0.0721248 0 0 -5.1365e-09 
40 1 -0.000112304 -1.9429e-05 0.0015502 5e-05 0.0061099 -0.0439644 -0.00626166 8.41502e-07 -1.32718e-07 -1.02964e-06 
455 1 -0.000210748 -2.72071e-05 0.00157008 5e-05 -0.0148319 -0.020743 -0.0511259 0 0 -5.1365e-09 
484 1 -0.000130521 -3.53965e-05 0.00164715 5e-05 -0.0093067 -0.0104292 -0.00828103 -8.31839e-07 -4.44956e-07 1.11634e-06 
124 1 -2.10511e-05 -7.12862e-05 0.0016192 5e-05 0.0073602 0.00788978 -0.0196273 0 0 -5.1365e-09 
359 1 -6.28383e-05 3.59595e-05 0.00162149 5e-05 0.0152722 -0.00305968 -0.0137974 0 0 -5.1365e-09 
446 1 2.99599e-05 -8.57297e-06 0.00155741 5e-05 -0.0137241 0.0255337 0.00442139 0 0 -5.1365e-09 
559 1 8.03744e-05 -6e-05 0.00162992 5e-05 0.0170376 -0.0111885 -0.0202121 0 0 -5.1365e-09 
158 1 0.000123331 3.47891e-05 0.00155023 5e-05 -0.00700463 -0.0139747 0.00656153 0 0 -5.1365e-09 
64 1 0.000153618 5.45279e-06 0.00166906 5e-05 0.0304442 -0.0119134 -0.0491348 0 0 -5.1365e-09 
82 1 0.000253365 7.33048e-05 0.00158945 5e-05 0.00553295 0.0319394 -0.0700534 0 0 -5.1365e-09 
504 1 0.000270854 -2.64266e-05 0.00162006 5e-05 0.0137641 -0.0323025 -0.106298 0 0 -5.1365e-09 
34 1 0.000380202 -2.78666e-06 0.00164223 5e-05 0.0466363 -0.00864508 -0.0988108 0 0 -5.1365e-09 
479 1 0.00049215 -4.66444e-06 0.00161944 5e-05 -0.0757834 -0.0227285 0.017812 0 0 -5.1365e-09 
208 1 0.00058678 -2.53581e-05 0.00156987 5e-05 0.00484906 -0.0254447 -0.0774504 0 0 -5.1365e-09 
11 1 0.00054275 7.17509e-05 0.00154243 5e-05 0.0483654 -0.0144 -0.0777 0 0 -5.1365e-09 
351 1 -0.000549117 0.000183425 0.00157042 5e-05 0.00387765 -0.0373454 -0.109026 0 0 -5.1365e-09 
111 1 -0.000583518 0.000130204 0.00165404 5e-05 -0.0725366 0.029053 -0.0751171 0 0 -5.1365e-09 
6 1 -0.000416075 8.22652e-05 0.00159131 5e-05 0.0190834 -0.0216129 -0.0821628 0 0 -5.1365e-09 
339 1 -0.00051859 0.000219569 0.00166668 5e-05 -0.0737442 0.0145876 -0.0935472 0 0 -5.1365e-09 
324 1 -0.000379053 0.000164561 0.00154387 5e-05 -0.0134678 -0.0331481 -0.0842315 0 0 -5.1365e-09 
347 1 -0.000278695 0.000176332 0.00156567 5e-05 -0.0788418 -0.0513543 -0.0283514 0 0 -5.1365e-09 
214 1 -0.000315333 0.000105431 0.00164159 5e-05 -0.0542394 -0.0297462 -0.0830566 0 0 -5.1365e-09 
109 1 -0.000378883 0.000180097 0.00167873 5e-05 -0.0324573 -0.0361664 -0.0908365 0 0 -5.1365e-09 
179 1 -0.000266871 0.000206448 0.00166541 5e-05 -0.0151796 -0.011991 -0.0366834 0 0 -5.1365e-09 
472 1 -0.000120766 8.0166e-05 0.00155134 5e-05 -0.0313332 -0.018885 0.00846607 -9.66312e-09 5.77674e-07 -1.02112e-07 
364 1 -0.000172089 0.000167219 0.00155141 5e-05 -0.00706653 -0.0123202 -0.00629421 0 0 -5.1365e-09 
481 1 -0.000146452 0.000226921 0.00162849 5e-05 -0.00181415 0.00604439 0.00539029 0 0 -5.1365e-09 
431 1 -0.000207513 0.00011651 0.00163332 5e-05 -0.0445255 -0.0599165 -0.0116662 0 0 -5.1365e-09 
428 1 -8.29137e-05 0.000143888 0.00162879 5e-05 -0.0367572 -0.00022373 -0.0163323 0 0 -5.1365e-09 
54 1 2.15557e-05 8.06759e-05 0.00165589 5e-05 -0.00368016 0.0048844 -0.0348232 0 0 -5.1365e-09 
169 1 1.11548e-05 0.000111864 0.00155197 5e-05 -0.0117403 0.028104 -0.0193883 0 0 -5.1365e-09 
192 1 -5.06426e-05 0.000202113 0.00155064 5e-05 -0.0230259 0.0221895 -0.00179052 0 0 -5.1365e-09 
259 1 1.5759e-05 0.000185068 0.00162706 5e-05 -0.00362913 0.0212907 -0.00471773 0 0 -5.1365e-09 
406 1 8.54617e-05 0.000179663 0.00155416 5e-05 -0.0147534 -0.0144171 -0.0167987 0 0 -5.1365e-09 
161 1 0.000181336 0.000150152 0.00155106 5e-05 -0.0231775 0.0147782 0.00872308 0 0 -5.1365e-09 
524 1 0.000114397 0.000105258 0.0016217 5e-05 -0.000316411 0.00996755 -0.0172529 0 0 -5.1365e-09 
570 1 0.000135731 0.000203894 0.00164248 5e-05 0.000378814 0.0278549 -0.0540096 0 0 -5.1365e-09 
272 1 0.000194201 0.000107859 0.00168416 5e-05 -0.0338342 -0.00879199 -0.0525503 0 0 -5.1365e-09 
66 1 0.000233822 0.000182617 0.00162978 5e-05 0.00191172 -0.00507401 0.0151137 0 0 -5.1365e-09 
225 1 0.000322863 0.000144627 0.00153942 5e-05 -0.00647615 -0.0030354 -0.00599277 0 0 -5.1365e-09 
371 1 0.000334272 0.000202621 0.00165328 5e-05 0.0536304 0.0111565 -0.0477363 0 0 -5.1365e-09 
547 1 0.000353572 9.52348e-05 0.00162199 5e-05 0.032005 -0.0140025 -0.0110962 0 0 -5.1365e-09 
346 1 0.000444137 9.12113e-05 0.00156055 5e-05 0.00710535 -0.0143261 -0.0991715 0 0 -5.1365e-09 
135 1 0.000484215 0.000146654 0.00163548 5e-05 -0.00550795 -0.0257591 -0.031297 0 0 -5.1365e-09 
175 1 0.000583131 0.000129935 0.00164657 5e-05 0.0377596 -0.0518891 -0.0390988 0 0 -5.1365e-09 
409 1 -0.000541923 0.000316927 0.00168617 5e-05 -0.0690274 0.0296683 -0.070803 0 0 -5.1365e-09 
224 1 -0.000467397 0.00036262 0.00156093 5e-05 0.00980704 -0.0667998 -0.0569337 0 0 -5.1365e-09 
297 1 -0.000464191 0.000267212 0.00159083 5e-05 0.00461059 -0.0239386 -0.0777326 0 0 -5.1365e-09 
210 1 -0.000402981 0.000341727 0.00163621 5e-05 -0.0136711 -0.0587053 -0.0336873 0 0 -5.1365e-09 
116 1 -0.00031088 0.000346358 0.00158179 5e-05 -0.0102969 0.00803772 -0.0973893 0 0 -5.1365e-09 
95 1 -0.000362902 0.000249133 0.00159871 5e-05 0.0380474 -0.0221293 -0.102641 0 0 -5.1365e-09 
129 1 -0.000231993 0.000288555 0.00161473 5e-05 -0.0197465 -5.73318e-05 0.00382898 -7.94571e-07 1.08201e-07 2.02645e-07 
238 1 -0.000311522 0.000310902 0.001685 5e-05 -0.0149721 0.0240605 -0.0776953 0 0 -5.1365e-09 
202 1 -0.000153563 0.000297702 0.00155343 5e-05 -0.0499439 0.013183 -0.007006 7.94571e-07 -1.08201e-07 -2.12918e-07 
546 1 -0.000204494 0.000382678 0.00167533 5e-05 -0.0137116 0.023978 -0.0623598 0 0 -5.1365e-09 
280 1 -6.91724e-05 0.000294856 0.00160789 5e-05 -0.0649214 0.0155992 -0.00874604 0 0 -5.1365e-09 
273 1 7.50267e-06 0.000326333 0.00154954 5e-05 -0.0125263 0.0220709 -0.000225932 0 0 -5.1365e-09 
163 1 8.76612e-06 0.000330057 0.00166039 5e-05 -0.0242796 -0.0155039 0.0103712 1.81433e-06 -6.68493e-07 -2.54732e-06 
499 1 7.40695e-05 0.000271267 0.00160089 5e-05 -0.0347598 0.00551781 -0.0191329 0 0 -5.1365e-09 
543 1 -5.39842e-05 0.000231958 0.00168561 5e-05 -0.0296596 -0.00313234 -7.85586e-05 0 0 -5.1365e-09 
521 1 0.000160508 0.000251617 0.001554 5e-05 -0.0145571 0.0057802 0.0266729 0 0 -5.1365e-09 
498 1 0.000219242 0.000343014 0.00155205 5e-05 -0.0161625 0.0202088 0.0105557 0 0 -5.1365e-09 
300 1 0.000153316 0.000326894 0.00162595 5e-05 -0.0289233 0.0321591 -0.0239784 0 0 -5.1365e-09 
134 1 0.000268885 0.000234676 0.00155165 5e-05 -0.0120384 0.0166083 0.0301775 0 0 -5.1365e-09 
72 1 0.000327893 0.000295541 0.00160708 5e-05 -0.0124725 -0.000510695 -0.0176537 0 0 -5.1365e-09 
71 1 0.000379743 0.000371351 0.00164801 5e-05 -0.00164283 0.00768576 -0.0391818 0 0 -5.1365e-09 
566 1 0.000258571 0.000369875 0.00164371 5e-05 0.016443 -0.00401467 0.0195369 0 0 -5.1365e-09 
413 1 0.000388589 0.000236191 0.00155041 5e-05 -0.0039038 -0.00711265 -0.0475428 0 0 -5.1365e-09 
290 1 0.000407993 0.000339296 0.00155252 5e-05 0.00262052 0.0188128 0.00889119 0 0 -5.1365e-09 
244 1 0.000504192 0.000309381 0.00154798 5e-05 -0.0333621 -0.0397218 -0.0455137 0 0 -5.1365e-09 
444 1 0.000434344 0.000263406 0.00164612 5e-05 0.0150186 0.0277367 -0.00571991 0 0 -5.1365e-09 
419 1 0.000475868 0.000378668 0.00161874 5e-05 0.0171484 0.0033639 -0.0325314 0 0 -5.1365e-09 