ITEM: TIMESTEP
26000
ITEM: NUMBER OF ATOMS
506
ITEM: BOX BOUNDS ff ff ff
-0.001 0.001
-0.001 0.001
0 0.004
ITEM: ATOMS id type x y z radius vx vy vz fx fy fz 
276 1 -0.000163442 0.000574991 0.00188179 5e-05 0.00595015 0.00262975 -0.0380596 0 0 -5.1365e-09 
153 1 -6.53668e-05 -7.15977e-05 -3.80132e-05 5e-05 0.0144389 0.010222 -0.15589 0 0 -5.1365e-09 
323 1 0.000318849 -0.000472946 0.00188347 5e-05 -0.000339262 0.0184652 -0.045301 0 0 -5.1365e-09 
528 1 -7.50241e-05 -0.000237719 -4.40159e-05 5e-05 -0.0260355 -0.0175375 -0.172165 0 0 -5.1365e-09 
420 1 3.9878e-05 -0.000476988 0.00186186 5e-05 -0.00735304 0.0151187 -0.0438897 0 0 -5.1365e-09 
92 1 1.77163e-05 -0.00013849 -2.11209e-05 5e-05 -0.00095734 -0.00334769 -0.148319 0 0 -5.1365e-09 
491 1 0.000183561 0.000551448 0.00166817 5e-05 -0.00649326 -0.00196699 -0.0208481 0 0 -5.1365e-09 
381 1 0.000179046 -0.000165246 -3.37221e-05 5e-05 0.0135296 0.0428511 -0.142766 0 0 -5.1365e-09 
110 1 6.85602e-05 0.000389902 0.00173199 5e-05 -0.00942051 0.00310201 -0.0122371 0 0 -5.1365e-09 
211 1 -4.57262e-05 0.000561826 0.00172572 5e-05 -0.0210231 0.0268924 -0.0055438 0 0 -5.1365e-09 
126 1 -0.000146692 1.1303e-08 -3.39427e-05 5e-05 -0.031111 0.0462514 -0.146935 0 0 -5.1365e-09 
30 1 -5.41382e-05 4.9155e-05 -6.91542e-05 5e-05 -0.00201485 -0.0237675 -0.191376 -1.05125e-07 -3.06717e-07 -1.91364e-07 
542 1 -2.60844e-05 0.000432061 0.00178258 5e-05 -0.000926542 0.0119831 -0.0154832 0 0 -5.1365e-09 
229 1 -0.000226963 0.000428089 0.00167825 5e-05 -0.0322813 0.00122925 -0.0247842 0 0 -5.1365e-09 
331 1 0.000198701 -4.01381e-05 -2.69312e-05 5e-05 -0.0263228 -0.011014 -0.124223 0 0 -5.1365e-09 
136 1 0.000247706 3.82711e-05 3.85154e-05 5e-05 -0.0249453 -0.02092 -0.113748 0 0 -5.1365e-09 
348 1 -0.000383701 0.000498668 0.00167642 5e-05 -0.01038 -0.0207152 -0.0227631 0 0 -5.1365e-09 
10 1 -0.00018293 0.000157202 -4.23448e-05 5e-05 -0.0215318 0.00593658 -0.148473 0 0 -5.1365e-09 
197 1 -0.000282539 0.000486658 0.00179183 5e-05 -0.0170798 0.00683484 -0.0258536 0 0 -5.1365e-09 
433 1 0.000289034 0.000299768 0.00167625 5e-05 0.011798 0.0152407 -0.0356361 0 0 -5.1365e-09 
60 1 -1.04232e-05 9.69366e-05 7.00567e-06 5e-05 0.0316645 -0.0472979 -0.149032 1.05125e-07 3.06717e-07 1.81091e-07 
487 1 0.000383969 0.000350342 0.00175567 5e-05 0.00901034 -0.0207413 -0.0629307 0 0 -5.1365e-09 
90 1 6.86415e-05 0.00018394 -2.68827e-05 5e-05 -0.0269743 -0.0161172 -0.12946 0 0 -5.1365e-09 
152 1 0.000143563 0.000218109 0.00171367 5e-05 0.00393008 -0.0254012 -0.0329229 0 0 -5.1365e-09 
50 1 0.000141917 0.000209003 4.61934e-05 5e-05 -0.0314097 0.00637198 -0.0929301 0 0 -5.1365e-09 
108 1 -5.82911e-05 0.000222471 -6.07756e-05 5e-05 0.0525197 0.0430559 -0.177818 0 0 -5.1365e-09 
402 1 6.13993e-05 -0.000225801 8.84104e-05 5e-05 0.0186977 0.0113168 -0.124191 0 0 -5.1365e-09 
489 1 -4.44461e-05 -0.000276483 0.000183412 5e-05 -0.00446521 0.02235 -0.0873924 0 0 -5.1365e-09 
239 1 -9.94691e-05 -0.000223035 6.41469e-05 5e-05 0.0607829 -0.0297684 -0.10496 0 0 -5.1365e-09 
363 1 -0.000140651 -9.07577e-05 6.18874e-05 5e-05 0.0420799 -0.0258773 -0.127925 0 0 -5.1365e-09 
401 1 -7.83048e-06 -0.000180768 0.000160618 5e-05 0.0192881 0.0248422 -0.128839 0 0 -5.1365e-09 
449 1 1.29261e-05 -6.21646e-05 7.90965e-05 5e-05 0.0349985 -0.0533817 -0.139114 0 0 -5.1365e-09 
141 1 0.000160883 -8.08074e-05 0.000116162 5e-05 -0.02108 -0.0165684 -0.100403 0 0 -5.1365e-09 
448 1 0.000102057 -0.000127883 4.38945e-05 5e-05 -0.0152201 0.074718 -0.141536 0 0 -5.1365e-09 
61 1 -0.000242442 -8.12524e-05 9.40172e-05 5e-05 0.0295876 -0.0130478 -0.0695746 0 0 -5.1365e-09 
123 1 -0.000252765 2.05372e-05 5.91271e-05 5e-05 -0.00701061 -0.0457873 -0.0862056 0 0 -5.1365e-09 
421 1 -0.000229325 -2.97979e-05 0.000187867 5e-05 0.0107276 -0.0545954 -0.10757 0 0 -5.1365e-09 
47 1 -8.56955e-05 5.18577e-05 0.000155136 5e-05 0.0198864 -0.0168616 -0.147761 0 0 -5.1365e-09 
142 1 -7.55864e-05 7.01459e-07 6.67109e-05 5e-05 -0.000847995 0.029177 -0.146917 0 0 -5.1365e-09 
393 1 -0.000159751 6.24476e-05 5.93517e-05 5e-05 0.051381 0.0063907 -0.110071 0 0 -5.1365e-09 
564 1 5.04553e-05 1.55928e-05 1.66802e-05 5e-05 -0.0246337 -0.00923022 -0.182065 0 0 -5.1365e-09 
549 1 0.000142272 4.97629e-05 -4.13513e-06 5e-05 -0.0185413 0.0355695 -0.172935 0 0 -5.1365e-09 
170 1 0.000136119 2.8196e-05 0.000183903 5e-05 0.0068531 0.0218381 -0.0824041 0 0 -5.1365e-09 
274 1 0.000240838 -1.43682e-05 0.000129213 5e-05 -0.0107578 -0.0191024 -0.098227 0 0 -5.1365e-09 
87 1 -9.65783e-05 0.000152066 2.12912e-05 5e-05 0.0410176 0.0148535 -0.167973 0 0 -5.1365e-09 
213 1 3.55786e-06 6.53512e-05 0.000101293 5e-05 0.0130394 0.00347281 -0.138312 0 0 -5.1365e-09 
358 1 7.18876e-05 0.000138167 7.64019e-05 5e-05 -0.0134809 -0.0262579 -0.100903 0 0 -5.1365e-09 
497 1 0.000127221 0.000183922 0.000150269 5e-05 -0.0613169 0.0258711 -0.0651001 0 0 -5.1365e-09 
261 1 0.000232796 0.000116094 0.000178314 5e-05 0.0199368 0.0291269 -0.109605 0 0 -5.1365e-09 
457 1 0.000222534 0.000132597 7.69652e-05 5e-05 -0.00195799 0.00524308 -0.109058 0 0 -5.1365e-09 
384 1 -1.87677e-06 0.000247405 5.47211e-05 5e-05 -0.0324941 -0.0148922 -0.165183 0 0 -5.1365e-09 
160 1 -0.000139068 -0.000231111 0.000235309 5e-05 0.00611995 0.00754193 -0.137627 0 0 -5.1365e-09 
342 1 -0.000118566 -0.000268964 0.00034536 5e-05 0.0338988 0.00525019 -0.090758 0 0 -5.1365e-09 
473 1 5.18889e-05 -0.000316662 0.000352899 5e-05 0.0260988 -0.0120721 -0.0949982 0 0 -5.1365e-09 
75 1 -0.000126739 -0.000135659 0.000186815 5e-05 0.00592582 0.0160753 -0.140987 0 0 -5.1365e-09 
6 1 -0.000218068 -0.000154273 0.000226094 5e-05 -0.000203918 -0.00992935 -0.186841 0 0 -5.1365e-09 
196 1 0.000140474 -0.000171367 0.00017637 5e-05 0.0648945 -0.00101071 -0.147011 0 0 -5.1365e-09 
121 1 0.000239456 -0.000133697 0.000173014 5e-05 -0.0118639 0.0548367 -0.118202 0 0 -5.1365e-09 
291 1 0.000189863 -0.000197098 0.000275671 5e-05 0.00505052 0.0227934 -0.135664 0 0 -5.1365e-09 
281 1 8.25267e-05 -0.000221482 0.000282859 5e-05 -0.016571 0.0100939 -0.14177 0 0 -5.1365e-09 
95 1 -0.000103475 4.61385e-05 0.000256231 5e-05 0.0357827 -0.0113999 -0.188967 0 0 -5.1365e-09 
51 1 -3.89048e-05 -2.7453e-06 0.00032672 5e-05 -0.00513136 0.00863781 -0.0980542 0 0 -5.1365e-09 
324 1 8.15822e-07 -1.32757e-05 0.000166068 5e-05 0.0196346 -0.0212148 -0.11833 0 0 -5.1365e-09 
507 1 2.94669e-05 5.28485e-05 0.000257195 5e-05 0.00555677 0.0590633 -0.156262 0 0 -5.1365e-09 
538 1 0.000120496 -8.36531e-05 0.000242508 5e-05 -0.0463879 -0.0219544 -0.167751 0 0 -5.1365e-09 
340 1 0.00023476 5.96389e-06 0.000230813 5e-05 0.00681524 -0.0117246 -0.124324 0 0 -5.1365e-09 
320 1 -0.000228853 5.72113e-05 0.000298134 5e-05 0.0413444 -0.0477728 -0.079801 0 0 -5.1365e-09 
224 1 -0.000200355 0.000203192 0.000364497 5e-05 -0.0427784 -0.0195267 -0.0807124 0 0 -5.1365e-09 
537 1 -0.000176872 0.000204804 0.000196966 5e-05 0.0439053 -0.00459264 -0.140279 0 0 -5.1365e-09 
389 1 -3.38664e-05 0.000139571 0.000160698 5e-05 0.0107725 -0.00230375 -0.143303 0 0 -5.1365e-09 
504 1 1.14504e-05 0.000144359 0.000323007 5e-05 -0.0285142 -0.0341789 -0.117757 0 0 -5.1365e-09 
441 1 6.67825e-05 0.000250174 0.000257754 5e-05 -0.0320284 0.0397551 -0.101955 0 0 -5.1365e-09 
454 1 0.000117347 0.000108494 0.000259795 5e-05 0.0104258 -0.0259443 -0.0983598 0 0 -5.1365e-09 
287 1 0.000230816 8.62099e-05 0.000293393 5e-05 0.000428495 -0.0218756 -0.122082 0 0 -5.1365e-09 
346 1 0.000153935 0.00019798 0.000317179 5e-05 -0.0101728 0.0113402 -0.121288 0 0 -5.1365e-09 
560 1 -5.92348e-05 0.000211361 0.000270972 5e-05 -0.0508093 0.0336366 -0.104819 0 0 -5.1365e-09 
256 1 -1.16751e-05 0.000296655 0.000308776 5e-05 0.00336129 -0.0498593 -0.096125 0 0 -5.1365e-09 
74 1 0.000106 0.000297928 0.000345952 5e-05 0.0180851 0.0408506 -0.0985131 0 0 -5.1365e-09 
227 1 -0.000189855 -0.000255354 0.000505163 5e-05 0.0329353 0.0346326 -0.102105 0 0 -5.1365e-09 
168 1 -3.66786e-05 -0.000277298 0.0004031 5e-05 0.0591558 0.0295681 -0.0719099 0 0 -5.1365e-09 
42 1 0.000187363 -0.000265232 0.00050192 5e-05 -0.0145625 0.0790875 -0.053951 0 0 -5.1365e-09 
387 1 -0.000222588 -0.000167449 0.00039038 5e-05 0.0406482 -1.70381e-05 -0.127284 0 0 -5.1365e-09 
429 1 -0.00028851 -0.000189958 0.000518597 5e-05 0.0313727 0.0218466 -0.107416 0 0 -5.1365e-09 
45 1 -0.000197911 -9.82661e-05 0.000474169 5e-05 0.021209 -0.00204401 -0.146541 0 0 -5.1365e-09 
165 1 -8.8578e-05 -0.000183993 0.000433879 5e-05 0.0929894 0.0541688 -0.11122 0 0 -5.1365e-09 
35 1 0.00015779 -0.000107505 0.000337905 5e-05 -0.0410738 0.00854208 -0.125591 0 0 -5.1365e-09 
496 1 0.00020928 -9.53685e-05 0.000427915 5e-05 -0.0129881 0.0253678 -0.14839 0 0 -5.1365e-09 
26 1 -0.000316298 -5.25592e-05 0.000374792 5e-05 0.0398146 -0.00759506 -0.139953 0 0 -5.1365e-09 
228 1 -8.03313e-05 -6.44899e-05 0.000469434 5e-05 0.0414464 -0.0138146 -0.161131 0 0 -5.1365e-09 
214 1 -0.000178814 -2.45903e-05 0.000357862 5e-05 0.0155745 -0.0338266 -0.152973 0 0 -5.1365e-09 
305 1 5.61007e-05 1.59736e-05 0.000381807 5e-05 -0.00818147 -0.0708118 -0.0935537 0 0 -5.1365e-09 
3 1 3.36657e-05 -3.01438e-05 0.000468227 5e-05 0.0220651 0.0463143 -0.142754 0 0 -5.1365e-09 
330 1 0.000163983 2.11307e-05 0.000331846 5e-05 -0.0208103 -0.0207243 -0.148826 0 0 -5.1365e-09 
447 1 0.00031023 5.75451e-05 0.000375699 5e-05 -0.04483 0.0186236 -0.119399 0 0 -5.1365e-09 
226 1 -0.000329543 8.64972e-05 0.000435153 5e-05 0.024719 -0.00728161 -0.112404 0 0 -5.1365e-09 
109 1 -0.000211415 0.000102582 0.000429005 5e-05 0.0244415 -0.0413475 -0.0844087 0 0 -5.1365e-09 
347 1 -0.000106634 0.000120957 0.000325767 5e-05 -0.00214088 0.0199389 -0.158502 0 0 -5.1365e-09 
181 1 -3.14929e-05 0.000144574 0.000459197 5e-05 0.0166787 -0.0200233 -0.137446 0 0 -5.1365e-09 
225 1 3.03083e-05 0.00022441 0.000417756 5e-05 -0.0564779 -0.006744 -0.0831639 0 0 -5.1365e-09 
479 1 8.15415e-05 0.000138452 0.00040272 5e-05 0.0120254 -0.00872839 -0.0606099 0 0 -5.1365e-09 
34 1 0.00011936 0.000144728 0.000499132 5e-05 -0.0381068 0.0322974 -0.120975 0 0 -5.1365e-09 
84 1 0.000226841 0.000135109 0.00043503 5e-05 -0.0241929 -0.0207028 -0.104939 0 0 -5.1365e-09 
476 1 -4.25817e-05 0.0003051 0.00040569 5e-05 -0.00991884 -0.0178981 -0.0403837 0 0 -5.1365e-09 
140 1 -9.68023e-05 0.000225517 0.00036267 5e-05 0.000229391 -0.0252617 -0.165813 0 0 -5.1365e-09 
244 1 0.000192608 0.000262588 0.000514005 5e-05 -0.0346122 -0.00849047 -0.0926452 0 0 -5.1365e-09 
191 1 -0.000189319 -0.000234455 0.000625258 5e-05 0.020022 -0.0112177 -0.133259 0 0 -5.1365e-09 
204 1 -6.0898e-05 -0.000351008 0.000522233 5e-05 0.0343415 -0.036444 -0.155406 0 0 -5.1365e-09 
107 1 0.000128304 -0.000298277 0.000653004 5e-05 -0.0104231 0.05214 -0.0958875 0 0 -5.1365e-09 
103 1 -0.000219828 -0.000123127 0.0005761 5e-05 0.0745321 0.0458432 -0.0929891 0 0 -5.1365e-09 
337 1 -0.000299872 -0.000209561 0.000625961 5e-05 0.0274685 -0.0187353 -0.0794488 -1.45524e-07 -5.15457e-07 -5.98307e-07 
312 1 -0.000116984 -0.000172326 0.000576259 5e-05 0.0446842 -0.0114068 -0.155949 0 0 -5.1365e-09 
455 1 -2.74724e-05 -0.000163584 0.000512843 5e-05 0.0444869 -0.0183679 -0.117815 0 0 -5.1365e-09 
317 1 7.11467e-05 -0.000175553 0.000548657 5e-05 -0.040629 -0.0178109 -0.120091 0 0 -5.1365e-09 
159 1 0.000312451 -0.000174226 0.000558074 5e-05 -0.00532523 0.030085 -0.0925757 0 0 -5.1365e-09 
438 1 -0.000291939 1.56153e-06 0.000485003 5e-05 0.0349166 0.00445839 -0.152016 0 0 -5.1365e-09 
506 1 -0.000250572 -6.14024e-06 0.000585875 5e-05 0.0344759 -0.00277296 -0.138873 0 0 -5.1365e-09 
431 1 -8.78992e-05 -1.73058e-05 0.000571291 5e-05 -0.0189591 0.0263209 -0.107617 0 0 -5.1365e-09 
155 1 8.01382e-06 -2.77616e-05 0.000614231 5e-05 0.000293799 0.00439394 -0.141216 0 0 -5.1365e-09 
325 1 0.000127666 -7.6579e-05 0.000518585 5e-05 -0.0399002 -0.00136712 -0.122664 0 0 -5.1365e-09 
100 1 0.000118863 3.45456e-05 0.000537761 5e-05 -0.0857608 0.0200371 -0.135703 0 0 -5.1365e-09 
266 1 0.000248755 6.0268e-05 0.00051501 5e-05 -0.0359868 -6.374e-05 -0.110533 0 0 -5.1365e-09 
195 1 0.000215415 7.33652e-05 0.00061749 5e-05 0.0100906 0.0302883 -0.135955 0 0 -5.1365e-09 
208 1 0.000384305 8.26012e-06 0.000625988 5e-05 -0.0307313 0.00045237 -0.127407 0 0 -5.1365e-09 
135 1 0.00014065 0.000161781 0.000629486 5e-05 -0.0486646 -0.0564561 -0.123613 0 0 -5.1365e-09 
282 1 0.00026852 0.000226987 0.000598369 5e-05 -0.0275426 -0.00134365 -0.113552 0 0 -5.1365e-09 
502 1 -4.86718e-05 0.000347708 0.000619996 5e-05 -0.0333445 -0.0208796 -0.0777982 0 0 -5.1365e-09 
413 1 0.00012262 0.000345062 0.000621217 5e-05 -0.0416785 0.0339004 -0.102329 0 0 -5.1365e-09 
547 1 3.81723e-05 0.00027206 0.000620727 5e-05 -0.0530324 0.00386647 -0.138952 0 0 -5.1365e-09 
113 1 -0.000118832 -0.000385872 0.000799419 5e-05 0.0322037 0.0390382 -0.0583873 0 0 -5.1365e-09 
9 1 2.2418e-09 -0.000397377 0.000646915 5e-05 0.0309419 0.0431218 -0.12175 0 0 -5.1365e-09 
514 1 -0.000289232 -0.000277039 0.000708028 5e-05 0.0234252 -0.000510003 -0.118176 0 0 -5.1365e-09 
400 1 -0.00018321 -0.000325114 0.000752627 5e-05 0.0550776 -0.00744396 -0.0623631 0 0 -5.1365e-09 
536 1 2.06503e-05 -0.000277793 0.00064335 5e-05 -0.00367604 0.0324781 -0.135106 0 0 -5.1365e-09 
355 1 -0.000320154 -0.00012873 0.000681152 5e-05 0.0496297 0.0192104 -0.0960055 1.45524e-07 5.15457e-07 5.88034e-07 
295 1 -0.000212184 -0.000229225 0.000766292 5e-05 0.0504062 0.0709135 -0.120066 0 0 -5.1365e-09 
397 1 -0.000195221 -0.000141621 0.000706963 5e-05 0.033604 -0.018716 -0.139298 0 0 -5.1365e-09 
296 1 0.000214761 -0.000169084 0.000717181 5e-05 -0.020387 0.0290202 -0.0945109 0 0 -5.1365e-09 
467 1 0.000262846 -0.000112579 0.000629905 5e-05 -0.0159817 -0.000599105 -0.162655 0 0 -5.1365e-09 
258 1 0.00035194 -0.000127521 0.000728767 5e-05 -0.023577 0.00886981 -0.106954 0 0 -5.1365e-09 
111 1 -0.000381805 -4.40274e-05 0.000823199 5e-05 0.013015 -0.00335261 -0.124698 0 0 -5.1365e-09 
351 1 -0.000381431 6.90466e-05 0.000702862 5e-05 0.0167496 -0.00701556 -0.122653 0 0 -5.1365e-09 
179 1 -0.000263596 6.90109e-06 0.000787012 5e-05 0.0321168 -0.00262729 -0.115269 0 0 -5.1365e-09 
329 1 -0.000149581 -5.45986e-05 0.000682775 5e-05 0.0164683 0.0131758 -0.135138 0 0 -5.1365e-09 
82 1 -0.000173511 -6.38101e-05 0.000819444 5e-05 0.0226531 -0.0462805 -0.0847416 0 0 -5.1365e-09 
174 1 -0.000178187 6.11616e-05 0.000759522 5e-05 0.0285521 0.0261934 -0.118268 0 0 -5.1365e-09 
304 1 0.000136396 3.95988e-05 0.000673693 5e-05 0.00866516 0.0141057 -0.107577 0 0 -5.1365e-09 
512 1 0.000292433 1.46197e-05 0.000695686 5e-05 -0.0251282 0.00468922 -0.145453 0 0 -5.1365e-09 
297 1 -0.000266487 0.000200005 0.000715433 5e-05 0.0459394 0.00598592 -0.0982891 0 0 -5.1365e-09 
408 1 -0.000374751 0.00014594 0.000809881 5e-05 0.00855656 -0.0332929 -0.117249 0 0 -5.1365e-09 
371 1 0.000143204 0.000211026 0.000792562 5e-05 -0.0298536 0.00115212 -0.127409 0 0 -5.1365e-09 
11 1 0.000310754 0.000136365 0.000685917 5e-05 -0.043353 0.00312805 -0.107866 0 0 -5.1365e-09 
205 1 0.000212442 0.000120597 0.000722791 5e-05 -0.0357427 -0.0110916 -0.141737 0 0 -5.1365e-09 
444 1 0.000289481 0.000224105 0.000731369 5e-05 -0.0238828 0.00633305 -0.1318 0 0 -5.1365e-09 
175 1 0.000374109 0.000177698 0.000826015 5e-05 -0.0424925 0.00313748 -0.0853482 0 0 -5.1365e-09 
394 1 -0.000165978 0.0001817 0.000793633 5e-05 0.00989447 -0.0590557 -0.105832 0 0 -5.1365e-09 
218 1 -3.63799e-05 0.000386523 0.000740419 5e-05 -0.0446497 -0.0631318 -0.0837049 0 0 -5.1365e-09 
68 1 -0.000160806 -0.000372524 0.000891547 5e-05 0.0333378 0.0237331 -0.0752636 0 0 -5.1365e-09 
237 1 -0.000381284 -0.000253852 0.000949891 5e-05 0.0119852 0.0088917 -0.103383 0 0 -5.1365e-09 
29 1 -0.000295713 -0.000291993 0.000892244 5e-05 0.0233237 0.0125674 -0.104561 0 0 -5.1365e-09 
336 1 -0.000219602 -0.000271598 0.000959434 5e-05 0.0469529 0.000441677 -0.11948 0 0 -5.1365e-09 
382 1 0.000136341 -0.000332087 0.000889515 5e-05 0.00478109 0.0206207 -0.121392 0 0 -5.1365e-09 
298 1 0.000275395 -0.000314078 0.000990614 5e-05 -0.0031508 0.0432521 -0.0841068 0 0 -5.1365e-09 
83 1 -0.000377331 -0.000189857 0.000847874 5e-05 0.0299362 -0.00431331 -0.0791278 0 0 -5.1365e-09 
46 1 -0.000426924 -9.90039e-05 0.000962762 5e-05 0.0271699 -0.00137572 -0.100332 0 0 -5.1365e-09 
532 1 -0.000273215 -0.000165618 0.000816291 5e-05 0.0367311 -0.000617009 -0.127027 0 0 -5.1365e-09 
343 1 -0.000103831 -0.000120885 0.00092351 5e-05 0.0343975 0.0083919 -0.0904964 0 0 -5.1365e-09 
316 1 0.000142954 -0.000110902 0.000885466 5e-05 -0.0466211 0.0211866 -0.0979677 0 0 -5.1365e-09 
215 1 0.000313804 -0.000158102 0.000858542 5e-05 -0.0139524 0.00423506 -0.107961 0 0 -5.1365e-09 
166 1 0.000403861 -0.000194412 0.000936738 5e-05 -0.0298764 0.00971555 -0.0746471 0 0 -5.1365e-09 
27 1 0.000426695 -8.37347e-05 0.000901833 5e-05 -0.0147574 0.0069475 -0.107101 0 0 -5.1365e-09 
360 1 -0.000343962 -1.73928e-05 0.000913172 5e-05 0.0342325 0.00925546 -0.104125 0 0 -5.1365e-09 
233 1 0.000224331 -3.56065e-05 0.000819087 5e-05 -0.0311383 0.0211555 -0.142863 0 0 -5.1365e-09 
465 1 0.000326051 -2.29817e-05 0.00096083 5e-05 -0.0571962 -0.0108441 -0.105486 0 0 -5.1365e-09 
194 1 0.000447678 2.8295e-05 0.000904702 5e-05 -0.0396522 0.0104462 -0.070793 0 0 -5.1365e-09 
339 1 -0.000413708 7.19182e-05 0.000917838 5e-05 0.0244907 -0.00643847 -0.0939244 0 0 -5.1365e-09 
272 1 0.000215097 0.000125254 0.000928078 5e-05 -0.0161148 -0.0205765 -0.112154 0 0 -5.1365e-09 
72 1 0.00026397 0.000218841 0.000896775 5e-05 -0.0144841 0.00489641 -0.127988 0 0 -5.1365e-09 
21 1 0.000418024 0.000112279 0.000974591 5e-05 -0.0204884 -0.018357 -0.0826504 0 0 -5.1365e-09 
88 1 -0.000223123 0.000312268 0.000923515 5e-05 0.000313145 -0.042889 -0.0928177 0 0 -5.1365e-09 
494 1 -8.17113e-05 0.000276044 0.00093695 5e-05 -0.0117463 -0.039892 -0.102021 0 0 -5.1365e-09 
290 1 0.000277696 0.000320435 0.000876395 5e-05 -0.0192905 0.000149518 -0.105698 0 0 -5.1365e-09 
391 1 0.000254214 0.000383598 0.000963215 5e-05 -0.0317661 -0.00390914 -0.0993148 0 0 -5.1365e-09 
419 1 0.000389354 0.000228121 0.00094828 5e-05 -0.014335 -0.0156758 -0.0910806 0 0 -5.1365e-09 
548 1 -6.01753e-05 0.000420471 0.000876814 5e-05 -0.00349288 -0.0205735 -0.0944617 0 0 -5.1365e-09 
516 1 -0.000243299 -0.00043904 0.0011261 5e-05 0.039308 0.00505439 -0.0674897 0 0 -5.1365e-09 
283 1 -0.000126985 -0.000458433 0.00109277 5e-05 0.00775486 0.00975003 -0.0904605 0 0 -5.1365e-09 
207 1 5.15568e-05 -0.000436456 0.00107112 5e-05 0.00118351 0.0297266 -0.0819769 0 0 -5.1365e-09 
553 1 0.000173147 -0.000402928 0.00102768 5e-05 0.00814765 0.0393323 -0.0862073 0 0 -5.1365e-09 
188 1 0.000207844 -0.000370482 0.00116825 5e-05 -0.0186542 0.0320422 -0.0672353 0 0 -5.1365e-09 
430 1 -0.000414732 -0.000245474 0.00106635 5e-05 0.00476213 -0.00197802 -0.0876931 0 0 -5.1365e-09 
112 1 -0.000232162 -0.000336567 0.00111822 5e-05 0.0416894 0.00204444 -0.102965 0 0 -5.1365e-09 
18 1 -0.000305989 -0.000232717 0.00109834 5e-05 0.0327007 0.0111787 -0.0991165 0 0 -5.1365e-09 
368 1 -0.00011541 -0.000296393 0.00101338 5e-05 0.0565361 0.00216474 -0.0970939 0 0 -5.1365e-09 
43 1 -0.000134295 -0.000238489 0.0011198 5e-05 0.0102926 -0.00393755 -0.0946456 0 0 -5.1365e-09 
263 1 -0.000238859 -0.000129153 0.00101296 5e-05 0.0383109 0.0330885 -0.0789713 0 0 -5.1365e-09 
63 1 -0.000362656 -0.000155578 0.00105126 5e-05 0.00315704 -0.00279429 -0.1144 0 0 -5.1365e-09 
294 1 0.000434604 -9.61083e-05 0.0010989 5e-05 -0.0109987 0.00476109 -0.0883358 0 0 -5.1365e-09 
334 1 -0.000409494 -4.38701e-05 0.00106117 5e-05 0.0346929 -0.0122004 -0.0906166 0 0 -5.1365e-09 
184 1 -0.00047492 5.27921e-05 0.00105003 5e-05 -0.0146483 0.00963021 -0.0678518 0 0 -5.1365e-09 
80 1 -0.00024387 1.27658e-05 0.0010514 5e-05 -0.00177714 0.0203221 -0.105044 0 0 -5.1365e-09 
345 1 0.000330952 -7.82769e-05 0.00108049 5e-05 -0.0274141 -0.0228003 -0.092651 0 0 -5.1365e-09 
267 1 -0.000387215 0.000122641 0.00103853 5e-05 0.0282425 -0.000550493 -0.0964296 0 0 -5.1365e-09 
76 1 -0.000280829 0.000141481 0.00104651 5e-05 0.0471461 -0.0199777 -0.108646 0 0 -5.1365e-09 
515 1 0.000291615 0.000117755 0.000999753 5e-05 -0.0492336 -0.0337475 -0.0932038 0 0 -5.1365e-09 
458 1 0.000206174 0.00017958 0.00101849 5e-05 -0.0250209 -0.020657 -0.110891 0 0 -5.1365e-09 
44 1 0.000448628 0.00015006 0.0010757 5e-05 -0.0196288 0.00185371 -0.102399 0 0 -5.1365e-09 
210 1 -0.000389249 0.000258109 0.00106636 5e-05 0.0250876 -0.0285621 -0.0631056 0 0 -5.1365e-09 
273 1 -0.000240049 0.000293777 0.00108812 5e-05 0.0305364 -0.00994998 -0.112406 0 0 -5.1365e-09 
134 1 4.86248e-05 0.000291923 0.0010501 5e-05 -0.0281402 -0.0060334 -0.105537 0 0 -5.1365e-09 
66 1 0.00020905 0.000303531 0.00103266 5e-05 -0.0282943 0.0106923 -0.0995191 0 0 -5.1365e-09 
120 1 0.000294452 0.000214563 0.0010622 5e-05 -0.0169023 -0.0201969 -0.111829 0 0 -5.1365e-09 
16 1 0.000395396 0.000270528 0.00110672 5e-05 -0.018578 0.00681877 -0.103176 0 0 -5.1365e-09 
435 1 -0.000209277 0.000393497 0.00105054 5e-05 0.0105444 -0.0281619 -0.0875692 0 0 -5.1365e-09 
450 1 0.000160847 0.000423027 0.00107068 5e-05 -0.0401779 -0.024089 -0.0683363 0 0 -5.1365e-09 
71 1 0.000254006 0.000399413 0.00110521 5e-05 -0.0223895 -0.0319622 -0.065674 0 0 -5.1365e-09 
399 1 -0.000373616 -0.000394008 0.00129657 5e-05 0.0138836 0.0196966 -0.0642589 0 0 -5.1365e-09 
67 1 -0.000122694 -0.000491566 0.00129219 5e-05 0.0223876 0.0155482 -0.0613852 0 0 -5.1365e-09 
373 1 0.000186266 -0.000478596 0.00123542 5e-05 0.000430832 0.0166237 -0.0785144 0 0 -5.1365e-09 
545 1 0.000278409 -0.000447805 0.00130192 5e-05 0.00150944 0.0186158 -0.0717408 0 0 -5.1365e-09 
417 1 -0.000370335 -0.000349899 0.00119557 5e-05 0.0214158 -0.00534722 -0.0767078 0 0 -5.1365e-09 
470 1 -0.000455628 -0.000216338 0.00127431 5e-05 0.0256421 -0.00229695 -0.0851613 0 0 -5.1365e-09 
395 1 -0.000356253 -0.000294513 0.00128166 5e-05 0.00543814 0.00726991 -0.081532 0 0 -5.1365e-09 
99 1 -0.000229542 -0.00034327 0.00124873 5e-05 -0.00605761 -0.00379511 -0.0807506 0 0 -5.1365e-09 
131 1 0.000148775 -0.000248914 0.00116019 5e-05 -0.00678974 0.0201539 -0.0884311 0 0 -5.1365e-09 
236 1 0.000364932 -0.000240138 0.00116221 5e-05 0.0220348 0.0288902 -0.0879587 0 0 -5.1365e-09 
511 1 0.00023835 -0.000324049 0.00128368 5e-05 0.00724937 0.026665 -0.0815038 0 0 -5.1365e-09 
118 1 0.00038407 -0.000346278 0.00126226 5e-05 -0.00413893 0.0307546 -0.0518131 0 0 -5.1365e-09 
31 1 -0.000455772 -0.000172864 0.00117489 5e-05 0.0215794 -0.0107426 -0.078234 0 0 -5.1365e-09 
333 1 -0.000359577 -0.000102821 0.00117911 5e-05 0.0296516 0.00274716 -0.10105 0 0 -5.1365e-09 
269 1 -0.000354955 -0.000195128 0.00125385 5e-05 0.0121364 0.013632 -0.0937248 0 0 -5.1365e-09 
270 1 -0.00028483 -9.06577e-05 0.00126982 5e-05 0.0143365 0.00576769 -0.0870519 0 0 -5.1365e-09 
154 1 -0.000266874 -0.000217065 0.00129782 5e-05 0.00576384 -0.0140967 -0.0819019 0 0 -5.1365e-09 
409 1 -0.000471131 1.21237e-05 0.00114211 5e-05 0.0158856 -0.0219683 -0.0964785 0 0 -5.1365e-09 
338 1 -0.000468702 -5.74388e-05 0.00126811 5e-05 0.0107095 -0.0101015 -0.0713206 0 0 -5.1365e-09 
568 1 0.000301075 4.13833e-05 0.00114506 5e-05 -0.0222125 -0.0191427 -0.105489 0 0 -5.1365e-09 
407 1 0.000509563 4.86999e-05 0.0011664 5e-05 -0.0198848 -0.0182394 -0.0651231 0 0 -5.1365e-09 
143 1 0.000419144 -2.3351e-05 0.0011717 5e-05 -0.0204472 -0.00431821 -0.0980381 0 0 -5.1365e-09 
161 1 0.000194867 0.000231379 0.00131759 5e-05 0.00181045 0.00100061 -0.0695248 0 0 -5.1365e-09 
466 1 0.000356018 0.000175795 0.00114036 5e-05 -0.0176052 -0.00916403 -0.109206 0 0 -5.1365e-09 
164 1 0.000297284 0.000231327 0.00120952 5e-05 -0.0169801 0.00947262 -0.0937786 0 0 -5.1365e-09 
189 1 0.00039969 8.3757e-05 0.00121659 5e-05 -0.0370215 -0.0138382 -0.0861782 0 0 -5.1365e-09 
520 1 0.000485263 0.00020829 0.00120862 5e-05 -0.0254027 0.00375341 -0.102123 0 0 -5.1365e-09 
280 1 -0.000288426 0.000228954 0.00124974 5e-05 1.4403e-05 -0.0384186 -0.0698176 0 0 -5.1365e-09 
223 1 -0.000386216 0.000333029 0.00122538 5e-05 -0.0116951 -0.04014 -0.0630819 0 0 -5.1365e-09 
56 1 -0.00021587 0.000349408 0.00119903 5e-05 0.0185453 0.00715597 -0.0438272 0 0 -5.1365e-09 
418 1 0.000356031 0.000344761 0.00119091 5e-05 -0.0228299 -0.0126861 -0.0669484 0 0 -5.1365e-09 
176 1 0.00033436 0.000296486 0.00127739 5e-05 -0.0260831 -0.0065332 -0.0975348 0 0 -5.1365e-09 
105 1 0.000470374 0.000260248 0.00130822 5e-05 -0.0249014 -0.0164374 -0.0604151 0 0 -5.1365e-09 
522 1 -0.000338593 0.000385045 0.00131636 5e-05 -0.0011267 -0.0116039 -0.0571191 0 0 -5.1365e-09 
173 1 -0.000119797 0.000514205 0.00124759 5e-05 0.0100314 -0.0170667 -0.0592231 0 0 -5.1365e-09 
106 1 6.32383e-05 0.000504651 0.00130201 5e-05 -0.00482888 -0.0176017 -0.0671784 0 0 -5.1365e-09 
7 1 0.000152974 0.000508065 0.00125797 5e-05 -0.0185095 -0.0159355 -0.0726532 0 0 -5.1365e-09 
265 1 0.000256376 0.000439968 0.00120166 5e-05 -0.0181179 -0.00872916 -0.0829131 0 0 -5.1365e-09 
566 1 0.000301784 0.000428711 0.00129982 5e-05 -0.00104306 0.00526608 -0.0691511 0 0 -5.1365e-09 
556 1 -0.00015464 -0.00056174 0.00149146 5e-05 0.00430763 0.0176271 -0.0343091 0 0 -5.1365e-09 
416 1 -0.000316122 -0.000467514 0.00146825 5e-05 -0.014233 -0.0070003 -0.055678 0 0 -5.1365e-09 
335 1 -0.000221927 -0.000405178 0.00141661 5e-05 0.00713278 0.0223379 -0.0654583 0 0 -5.1365e-09 
14 1 0.000185853 -0.000499844 0.0014067 5e-05 0.00269138 -0.0029902 -0.0594787 0 0 -5.1365e-09 
361 1 0.000313256 -0.000386608 0.00153244 5e-05 0.0277509 -0.00461227 -0.0213592 0 0 -5.1365e-09 
396 1 -0.000406578 -0.000376467 0.00141301 5e-05 0.0253946 -0.00159551 -0.0472024 0 0 -5.1365e-09 
357 1 -0.00048559 -0.000272848 0.00140644 5e-05 0.0204267 -0.0108697 -0.0650821 0 0 -5.1365e-09 
262 1 -0.000376738 -0.000232569 0.00136227 5e-05 0.0159402 0.0124619 -0.0756153 0 0 -5.1365e-09 
286 1 -0.000288446 -0.000354456 0.00135004 5e-05 0.0164651 0.00458472 -0.0662062 0 0 -5.1365e-09 
544 1 -0.000196372 -0.000300578 0.00139225 5e-05 0.0260577 0.00627215 -0.0561637 0 0 -5.1365e-09 
203 1 0.000225146 -0.000344513 0.0014449 5e-05 0.00996011 0.0137032 -0.0619502 0 0 -5.1365e-09 
255 1 0.000465465 -0.000339904 0.00147533 5e-05 0.000305345 0.014969 -0.0337524 0 0 -5.1365e-09 
518 1 0.000517251 -0.000237346 0.0014414 5e-05 -0.00397768 0.0126802 -0.0472905 0 0 -5.1365e-09 
495 1 -0.00053775 -0.000103298 0.00137747 5e-05 0.0270776 0.00204747 -0.0372672 0 0 -5.1365e-09 
137 1 -0.000459081 -0.000168667 0.00136942 5e-05 0.024406 0.0182579 -0.0549218 0 0 -5.1365e-09 
484 1 -0.000245786 -0.000155897 0.00138398 5e-05 -0.0146375 -0.0133515 -0.066765 0 0 -5.1365e-09 
15 1 -0.000344423 -0.000119469 0.00140963 5e-05 0.0101253 -0.0100584 -0.0753716 0 0 -5.1365e-09 
93 1 0.000548014 -0.00013471 0.00146684 5e-05 -0.00479382 0.0177427 -0.0406901 0 0 -5.1365e-09 
145 1 -0.000549575 2.88179e-05 0.00139375 5e-05 0.0269014 -0.0115895 -0.0413234 0 0 -5.1365e-09 
527 1 -0.000390544 -8.31604e-05 0.00132635 5e-05 0.0390117 -0.0142595 -0.080894 0 0 -5.1365e-09 
58 1 -0.000464989 -3.02648e-05 0.00140543 5e-05 0.0314686 0.0213575 -0.0727957 0 0 -5.1365e-09 
364 1 -0.000404864 1.35527e-05 0.00148904 5e-05 -0.0111947 -0.0142495 -0.033037 0 0 -5.1365e-09 
77 1 0.000240543 4.11996e-05 0.00136404 5e-05 -0.0186214 0.00770742 -0.0603397 0 0 -5.1365e-09 
198 1 0.000541645 -2.19894e-05 0.00131466 5e-05 0.0139509 0.0245678 -0.0808258 0 0 -5.1365e-09 
69 1 0.000386853 -3.24244e-06 0.00139421 5e-05 -0.0162379 -0.0259887 -0.0593411 0 0 -5.1365e-09 
386 1 0.000415882 -6.36466e-05 0.00152162 5e-05 -0.00299897 0.0104385 -0.0160877 0 0 -5.1365e-09 
307 1 0.000496609 7.71714e-05 0.00148257 5e-05 -0.012953 0.0193162 -0.0615556 0 0 -5.1365e-09 
327 1 0.000557505 5.28532e-05 0.00139942 5e-05 -0.020374 0.00395925 -0.0666932 0 0 -5.1365e-09 
245 1 -0.000548601 0.000131935 0.00148929 5e-05 0.0139643 -0.0113578 -0.0272819 0 0 -5.1365e-09 
451 1 0.000309671 0.000218515 0.00139466 5e-05 0.0133522 -0.00504505 -0.0695939 0 0 -5.1365e-09 
426 1 0.000343948 0.000109818 0.00137458 5e-05 -0.00670199 -0.0119464 -0.0774735 0 0 -5.1365e-09 
64 1 0.000268129 0.000135471 0.00145592 5e-05 0.00415241 0.0159968 -0.0543652 0 0 -5.1365e-09 
500 1 0.000456667 8.90956e-05 0.00136262 5e-05 0.00922105 -0.0121584 -0.0840808 0 0 -5.1365e-09 
94 1 0.000551735 0.000171623 0.00149412 5e-05 -0.0125565 0.0255092 -0.0408085 0 0 -5.1365e-09 
8 1 0.000245682 0.000342715 0.00134146 5e-05 -0.00473605 0.000641062 -0.0845861 0 0 -5.1365e-09 
1 1 0.000297824 0.000354799 0.00143745 5e-05 -0.0277019 -0.0181741 -0.0569736 0 0 -5.1365e-09 
539 1 0.000456457 0.000337278 0.00146394 5e-05 -0.0114573 0.0133203 -0.0657004 0 0 -5.1365e-09 
404 1 0.000448365 0.000218937 0.00142206 5e-05 -0.0479606 -0.0341271 -0.0788692 0 0 -5.1365e-09 
505 1 -0.000441918 0.000392887 0.00148316 5e-05 2.46121e-05 1.47766e-05 -5.52295e-05 -8.24941e-10 -4.96247e-10 1.85032e-09 
540 1 -0.000262115 0.000478847 0.00134233 5e-05 -0.00231422 -0.0168664 -0.0590809 0 0 -5.1365e-09 
561 1 -0.000333059 0.0004783 0.00148392 5e-05 0.0152355 0.00630371 -0.0429637 0 0 -5.1365e-09 
565 1 -0.000327773 0.0003904 0.00141575 5e-05 -0.0194308 -0.00246404 -0.0629902 0 0 -5.1365e-09 
486 1 -0.000145951 0.000440488 0.00135075 5e-05 0.00974772 -0.0129518 -0.0722525 0 0 -5.1365e-09 
163 1 -0.00018216 0.000385196 0.00145213 5e-05 -0.00900056 -0.00593503 -0.0610857 0 0 -5.1365e-09 
260 1 0.000238781 0.000492239 0.00147425 5e-05 0.014403 0.00506904 -0.067342 0 0 -5.1365e-09 
79 1 0.000117695 0.000546203 0.00151697 5e-05 0.00337611 0.0190495 -0.0182295 0 0 -5.1365e-09 
187 1 0.000314822 0.000465335 0.00140465 5e-05 -0.00444056 -0.0224281 -0.0654855 0 0 -5.1365e-09 
234 1 0.000388305 0.000383568 0.00139384 5e-05 -0.00955582 -0.0263807 -0.0429853 0 0 -5.1365e-09 
119 1 -7.55204e-05 0.000589234 0.00153489 5e-05 0.0081976 0.0046691 0.0171561 0 0 -5.1365e-09 
571 1 -5.81064e-05 0.000543568 0.00134893 5e-05 -0.00747543 -0.0153405 -0.0535671 0 0 -5.1365e-09 
533 1 -0.000266346 -0.000553646 0.00160157 5e-05 0.000601055 -0.00762632 -0.0429032 0 0 -5.1365e-09 
200 1 -4.54341e-05 -0.000610621 0.00161201 5e-05 -0.00733407 0.01681 0.00207788 0 0 -5.1365e-09 