ITEM: TIMESTEP
20000
ITEM: NUMBER OF ATOMS
571
ITEM: BOX BOUNDS ff ff ff
-0.001 0.001
-0.001 0.001
0 0.004
ITEM: ATOMS id type x y z radius vx vy vz fx fy fz 
209 1 -0.000215788 -5.77613e-05 6.17446e-05 5e-05 -0.054734 -0.0540574 -0.139675 0 0 -5.1365e-09 
252 1 -0.000184909 7.67053e-05 0.000122403 5e-05 0.0392093 0.048456 -0.0680244 0 0 -5.1365e-09 
242 1 -2.24087e-05 6.48386e-05 5.21027e-05 5e-05 -0.0130536 0.0717198 0.202139 0 0 -5.1365e-09 
353 1 -0.000151477 0.000202409 9.10734e-05 5e-05 0.000644034 -0.000277811 -0.196499 0 0 -5.1365e-09 
182 1 -1.86377e-05 -0.000178201 0.000207216 5e-05 -0.0677116 -0.0764171 -0.0555668 0 0 -5.1365e-09 
526 1 0.000167134 -0.000209249 0.000176146 5e-05 -0.00797342 0.00508879 -0.193814 0 0 -5.1365e-09 
322 1 7.87112e-05 -0.000176555 0.000241986 5e-05 0.188051 -0.0340257 -0.12226 0 0 -5.1365e-09 
318 1 0.000117548 -7.93197e-05 0.000222717 5e-05 -0.0377261 0.0396631 -0.194479 0 0 -5.1365e-09 
308 1 -0.000278281 4.44203e-05 0.000246539 5e-05 0.0194618 -0.0476071 -0.16436 0 0 -5.1365e-09 
326 1 -9.16271e-05 5.39808e-05 0.000271323 5e-05 0.0568163 -0.0179503 -0.183561 0 0 -5.1365e-09 
235 1 -4.51255e-05 -4.72931e-05 0.000248721 5e-05 -0.00433109 0.0186243 -0.198398 0 0 -5.1365e-09 
490 1 0.000199205 -2.83894e-06 0.000265871 5e-05 -0.0343185 0.0119519 -0.165901 0 0 -5.1365e-09 
157 1 -2.91915e-05 0.000101269 0.000162427 5e-05 0.0353351 -0.0237009 -0.205665 0 0 -5.1365e-09 
425 1 -3.22425e-05 0.000269346 0.000274593 5e-05 -0.00634499 -0.00375115 -0.182672 0 0 -5.1365e-09 
551 1 -3.74204e-06 -0.000317062 0.000339517 5e-05 0.00545131 -0.0501844 -0.140133 0 0 -5.1365e-09 
89 1 3.67586e-05 -0.000337199 0.000454387 5e-05 -0.00292803 0.0486068 -0.104267 0 0 -5.1365e-09 
468 1 -0.000220985 -8.15706e-05 0.000367766 5e-05 0.0654423 -0.0177256 -0.168397 0 0 -5.1365e-09 
250 1 2.81279e-05 -0.000208194 0.000338222 5e-05 0.00134714 -0.0184265 -0.155363 0 0 -5.1365e-09 
285 1 -4.44465e-05 -0.000113659 0.00042631 5e-05 0.00182632 -0.0616004 -0.122069 0 0 -5.1365e-09 
328 1 9.86905e-05 -0.000155987 0.000435286 5e-05 -0.00824309 0.0430818 -0.114871 0 0 -5.1365e-09 
199 1 0.000146528 -7.73228e-05 0.000357918 5e-05 -0.0177176 0.0617348 -0.17358 0 0 -5.1365e-09 
243 1 -0.000303708 -1.19353e-05 0.000348988 5e-05 0.0182024 -0.0383596 -0.1624 0 0 -5.1365e-09 
36 1 1.8618e-05 -6.47546e-05 0.000340251 5e-05 0.0300439 -0.0409898 -0.204318 0 0 -5.1365e-09 
183 1 -4.1069e-05 6.86005e-05 0.000401625 5e-05 0.0111282 -0.0746412 -0.184389 0 0 -5.1365e-09 
508 1 0.000144711 4.21426e-05 0.000438877 5e-05 -0.0490365 0.0183127 -0.156602 0 0 -5.1365e-09 
132 1 0.000304477 2.65763e-05 0.000441115 5e-05 0.0360934 -0.0300313 -0.197846 0 0 -5.1365e-09 
471 1 -0.000210111 7.83043e-05 0.000367137 5e-05 0.0446876 -0.0306867 -0.170428 0 0 -5.1365e-09 
311 1 -0.000106342 0.000139956 0.000458912 5e-05 0.00464195 -0.0224615 -0.16382 0 0 -5.1365e-09 
186 1 0.000143316 0.00012549 0.000377376 5e-05 -0.06218 0.0595252 -0.14483 0 0 -5.1365e-09 
529 1 7.29521e-05 0.000271895 0.000320662 5e-05 0.0398477 0.0533164 -0.168669 0 0 -5.1365e-09 
422 1 -1.81188e-05 0.000297832 0.000429613 5e-05 -0.050014 -0.0313694 -0.143677 0 0 -5.1365e-09 
57 1 0.000133934 0.0002452 0.000425641 5e-05 0.0383577 0.0188959 -0.157282 0 0 -5.1365e-09 
453 1 -0.000181182 -0.000263205 0.000463854 5e-05 0.0570973 0.0926885 -0.0558392 0 0 -5.1365e-09 
23 1 -0.00011026 -0.000340576 0.00055635 5e-05 0.00733052 0.0320445 -0.117082 0 0 -5.1365e-09 
73 1 0.000165114 -0.000257095 0.000477919 5e-05 -0.0155696 0.0117007 -0.143123 0 0 -5.1365e-09 
367 1 -0.000330103 -9.86795e-05 0.000471709 5e-05 0.0374748 -0.0229536 -0.142339 0 0 -5.1365e-09 
251 1 -5.04296e-05 -0.000179131 0.000561474 5e-05 -0.0040718 0.055449 -0.114337 0 0 -5.1365e-09 
24 1 0.000210896 -8.38894e-05 0.000496476 5e-05 -0.054135 0.0213206 -0.129571 0 0 -5.1365e-09 
299 1 0.000150658 -0.000125282 0.000572951 5e-05 -0.0332155 0.052715 -0.119747 0 0 -5.1365e-09 
222 1 0.000275467 -0.000154938 0.000608166 5e-05 -0.0457279 0.0502105 -0.136736 0 0 -5.1365e-09 
509 1 -0.000264365 3.28689e-05 0.000548557 5e-05 0.0251607 -0.0142552 -0.149517 0 0 -5.1365e-09 
485 1 -7.76699e-05 2.49851e-05 0.000564582 5e-05 0.0782181 -0.0242304 -0.157663 0 0 -5.1365e-09 
37 1 0.000253956 7.37902e-06 0.000542321 5e-05 -0.0318167 0.022242 -0.176069 0 0 -5.1365e-09 
128 1 -0.000238796 0.000215686 0.000468209 5e-05 0.0380021 -0.0577171 -0.103545 0 0 -5.1365e-09 
493 1 0.000315221 8.68736e-05 0.000539762 5e-05 0.00275144 -0.0508881 -0.145098 0 0 -5.1365e-09 
115 1 4.14778e-05 0.000241212 0.000591907 5e-05 0.0414637 -0.0104724 -0.150463 0 0 -5.1365e-09 
90 1 0.00019933 0.000264782 0.000554074 5e-05 -0.0761422 -0.0557627 -0.0403602 0 0 -5.1365e-09 
379 1 -0.000134693 -0.000254272 0.000629055 5e-05 0.0194934 0.0741623 -0.103476 0 0 -5.1365e-09 
528 1 2.06473e-05 -0.000364521 0.000712036 5e-05 -0.0338193 0.0522204 -0.101246 0 0 -5.1365e-09 
558 1 0.000160229 -0.000325874 0.000644638 5e-05 -0.0230921 0.0131989 -0.139553 0 0 -5.1365e-09 
381 1 0.00025683 -0.000262068 0.000645695 5e-05 -0.055937 0.0311791 -0.0732913 0 0 -5.1365e-09 
239 1 -0.000332792 -0.000100344 0.000638038 5e-05 0.0215619 -0.0277545 -0.141455 0 0 -5.1365e-09 
321 1 -0.000192146 -0.000106855 0.000632517 5e-05 0.0553306 -0.0465459 -0.131308 0 0 -5.1365e-09 
153 1 -0.000102369 -0.000192768 0.000754426 5e-05 0.00678357 -0.0204176 -0.0773677 0 0 -5.1365e-09 
541 1 -4.38086e-05 -0.000209795 0.000673898 5e-05 -0.024733 -0.00249468 -0.179655 0 0 -5.1365e-09 
13 1 0.000307198 -0.000153611 0.000716657 5e-05 -0.0526623 0.0323442 -0.103563 0 0 -5.1365e-09 
383 1 -0.000371855 -5.32128e-05 0.000751595 5e-05 0.0891142 0.0262804 -0.081284 0 0 -5.1365e-09 
463 1 -0.000259477 -2.02837e-06 0.000686583 5e-05 0.0311555 -0.0443401 -0.142201 0 0 -5.1365e-09 
49 1 -0.000167611 2.71312e-05 0.000648365 5e-05 0.041889 -0.0343316 -0.16385 0 0 -5.1365e-09 
434 1 0.00020199 -1.57899e-05 0.000717669 5e-05 -0.049313 0.0466112 -0.141754 0 0 -5.1365e-09 
350 1 0.000379082 4.02372e-05 0.00062161 5e-05 0.00589003 0.0121576 -0.127226 0 0 -5.1365e-09 
482 1 -0.000292152 0.000102337 0.000637913 5e-05 0.0294078 -0.0197543 -0.135762 0 0 -5.1365e-09 
123 1 -0.000378661 9.41423e-05 0.00076026 5e-05 0.0310129 -0.0359417 -0.121115 0 0 -5.1365e-09 
10 1 -0.000272435 0.000211972 0.000699498 5e-05 0.0215427 -0.0145968 -0.138329 0 0 -5.1365e-09 
388 1 -0.00025749 0.000135165 0.000762952 5e-05 0.0331853 -0.0159825 -0.156791 0 0 -5.1365e-09 
86 1 1.0537e-05 8.59215e-05 0.000697435 5e-05 -0.0304479 0.0371452 -0.196401 0 0 -5.1365e-09 
475 1 0.000160508 0.000188596 0.00061595 5e-05 -0.0277007 0.0179758 -0.108336 0 0 -5.1365e-09 
91 1 0.000187325 0.000140832 0.000740471 5e-05 -0.0504611 0.0576942 -0.125545 0 0 -5.1365e-09 
459 1 0.000271224 0.000109186 0.0006621 5e-05 -0.0433705 0.0487037 -0.158456 0 0 -5.1365e-09 
60 1 6.04356e-05 0.000296716 0.00073006 5e-05 -0.025586 -0.0363983 -0.137686 0 0 -5.1365e-09 
473 1 -0.000151184 -0.000396836 0.000915962 5e-05 0.0304737 0.0187174 -0.101719 0 0 -5.1365e-09 
401 1 -0.00010079 -0.000249245 0.000864438 5e-05 -0.04507 0.0396533 -0.101346 0 0 -5.1365e-09 
489 1 -5.1645e-05 -0.000358158 0.000788195 5e-05 -0.0319252 0.0510858 -0.096038 0 0 -5.1365e-09 
196 1 0.000127939 -0.00035894 0.000853575 5e-05 -0.0405843 0.0558743 -0.0728295 0 0 -5.1365e-09 
402 1 0.000238089 -0.000323809 0.000785485 5e-05 -0.0150871 -3.03134e-07 -0.128831 0 0 -5.1365e-09 
363 1 -0.000333656 -8.08265e-05 0.000840502 5e-05 0.0345445 0.0288699 -0.134756 0 0 -5.1365e-09 
449 1 -0.000218113 -0.000128092 0.000887854 5e-05 0.0538966 -0.0204292 -0.134043 0 0 -5.1365e-09 
92 1 -0.00010142 -0.000123292 0.00089363 5e-05 0.0482677 -0.024454 -0.140949 0 0 -5.1365e-09 
25 1 0.00012921 -0.000200962 0.000780032 5e-05 -0.0386864 0.00878656 -0.13539 0 0 -5.1365e-09 
78 1 0.000156843 -9.0718e-05 0.000839734 5e-05 -0.024033 0.0301318 -0.150023 0 0 -5.1365e-09 
331 1 0.000311582 -0.000222247 0.000790942 5e-05 0.00494027 0.0529715 -0.134853 0 0 -5.1365e-09 
136 1 0.000379502 -0.000126878 0.000804612 5e-05 -0.0336122 0.0185428 -0.117895 0 0 -5.1365e-09 
121 1 0.000383491 -0.000195864 0.000892524 5e-05 -0.00567596 0.00924923 -0.125704 0 0 -5.1365e-09 
61 1 -0.000432147 1.31531e-05 0.00081584 5e-05 0.0223946 -0.0518562 -0.136995 0 0 -5.1365e-09 
421 1 -0.000407432 5.61513e-05 0.000914427 5e-05 0.0216347 -0.0128352 -0.123434 0 0 -5.1365e-09 
126 1 -0.000312253 2.63966e-05 0.000813886 5e-05 0.0287857 -0.035292 -0.139369 0 0 -5.1365e-09 
30 1 -0.000222371 -2.9402e-05 0.000840768 5e-05 0.038393 0.0049696 -0.150533 0 0 -5.1365e-09 
564 1 -0.000124747 -6.77933e-06 0.000851107 5e-05 0.0281653 -0.020797 -0.140123 0 0 -5.1365e-09 
213 1 -4.88093e-06 7.45933e-05 0.000850768 5e-05 0.0266293 -0.0192926 -0.0731126 0 0 -5.1365e-09 
549 1 3.23505e-05 -4.13934e-05 0.000906573 5e-05 0.0270582 0.0804245 -0.135613 0 0 -5.1365e-09 
50 1 0.000331121 5.71976e-05 0.000836395 5e-05 -0.0516566 0.019202 -0.118196 0 0 -5.1365e-09 
17 1 0.000262165 -3.11816e-05 0.00084245 5e-05 -0.0184726 0.0271009 -0.157069 0 0 -5.1365e-09 
261 1 0.00035125 2.48093e-06 0.000918459 5e-05 -0.0403691 0.0138998 -0.126997 0 0 -5.1365e-09 
457 1 0.000425545 -2.24349e-05 0.000818613 5e-05 -0.0444685 0.0341635 -0.115395 0 0 -5.1365e-09 
393 1 -0.000370898 0.000175534 0.000822607 5e-05 0.0170639 -0.0312311 -0.124016 0 0 -5.1365e-09 
47 1 -0.000333779 0.000135212 0.000911215 5e-05 0.00335351 -0.0425122 -0.129078 0 0 -5.1365e-09 
87 1 -0.000114525 0.000183366 0.000906011 5e-05 0.0488708 -0.0292206 -0.138552 0 0 -5.1365e-09 
358 1 0.000124514 0.000150558 0.000823243 5e-05 0.0379713 -0.073472 -0.144302 0 0 -5.1365e-09 
537 1 -0.000271097 0.000318964 0.000822062 5e-05 -0.000702491 0.00207105 -0.119512 0 0 -5.1365e-09 
320 1 -0.000350935 0.000265126 0.000899983 5e-05 0.0026974 -0.0144751 -0.131165 0 0 -5.1365e-09 
108 1 -0.000156539 0.000254672 0.000781088 5e-05 0.0311569 -0.0112261 -0.149551 0 0 -5.1365e-09 
560 1 -0.000107499 0.000343657 0.000874559 5e-05 -0.0244313 -0.0147841 -0.116941 0 0 -5.1365e-09 
384 1 5.05615e-05 0.000379631 0.000838246 5e-05 0.0111065 -0.034838 -0.146726 0 0 -5.1365e-09 
441 1 0.000325543 0.000281085 0.000822414 5e-05 -0.0534846 0.0451277 -0.121898 0 0 -5.1365e-09 
42 1 4.42253e-05 -0.000472743 0.00104017 5e-05 0.0367475 0.005714 -0.113786 0 0 -5.1365e-09 
168 1 -0.000262481 -0.00027231 0.000933336 5e-05 0.0695538 -0.00545013 -0.0785383 0 0 -5.1365e-09 
291 1 0.000218346 -0.00036979 0.000945216 5e-05 0.0249656 0.0168862 -0.089334 0 0 -5.1365e-09 
141 1 0.000274265 -0.000231699 0.000937191 5e-05 -0.0337187 0.0246822 -0.14694 0 0 -5.1365e-09 
342 1 -0.000402461 -0.000202565 0.00105253 5e-05 0.0530383 0.00151203 -0.0730564 0 0 -5.1365e-09 
160 1 -0.000280727 -0.000164531 0.00100367 5e-05 0.0350306 -0.0235652 -0.121509 0 0 -5.1365e-09 
281 1 -0.00015625 -0.000207537 0.00104295 5e-05 0.0426414 -0.0222216 -0.110143 0 0 -5.1365e-09 
305 1 3.78686e-05 -0.000165833 0.000943999 5e-05 -0.0488489 0.0374561 -0.0998036 0 0 -5.1365e-09 
448 1 0.000185594 -0.000139054 0.000948564 5e-05 -0.0471916 0.0187492 -0.133845 0 0 -5.1365e-09 
274 1 0.000356516 -9.72494e-05 0.000926129 5e-05 -0.00505529 -0.00217926 -0.15335 0 0 -5.1365e-09 
538 1 0.000288235 -0.000213332 0.00105693 5e-05 -0.0166008 0.016477 -0.109784 0 0 -5.1365e-09 
35 1 0.000390682 -0.000223288 0.00100855 5e-05 -0.00110022 0.0116302 -0.128713 0 0 -5.1365e-09 
447 1 0.000461115 -8.68805e-05 0.0010198 5e-05 -0.03431 0.00751234 -0.0835993 0 0 -5.1365e-09 
387 1 -0.00044642 -7.13602e-05 0.000960376 5e-05 0.0322677 -0.0281756 -0.101401 0 0 -5.1365e-09 
26 1 -0.000486275 1.90484e-06 0.00107007 5e-05 0.0264313 -0.0144967 -0.0735547 0 0 -5.1365e-09 
75 1 -0.000348321 -4.59877e-05 0.00100251 5e-05 0.0305145 -0.0203065 -0.121859 0 0 -5.1365e-09 
6 1 -0.000374962 6.84701e-05 0.00105956 5e-05 0.000153505 -0.0132214 -0.136983 0 0 -5.1365e-09 
142 1 -0.000219205 2.3018e-05 0.00100311 5e-05 0.0289615 -0.0109281 -0.133759 0 0 -5.1365e-09 
507 1 -7.60471e-05 5.48669e-05 0.00102695 5e-05 0.0561152 -0.0364735 -0.123768 0 0 -5.1365e-09 
170 1 0.000254322 -3.99137e-05 0.00100199 5e-05 -0.022811 0.00170659 -0.142292 0 0 -5.1365e-09 
340 1 0.000375488 -1.73529e-06 0.00101885 5e-05 -0.0240874 0.00778383 -0.107308 0 0 -5.1365e-09 
226 1 -0.000447539 0.000133111 0.00102747 5e-05 0.0290213 -0.0341346 -0.10681 0 0 -5.1365e-09 
324 1 -0.000266936 0.000136612 0.00100857 5e-05 0.0278981 -0.000866243 -0.130442 0 0 -5.1365e-09 
454 1 0.000174547 8.61116e-05 0.000924834 5e-05 -0.0164647 0.0288415 -0.145966 0 0 -5.1365e-09 
256 1 0.000208565 0.000179636 0.00104426 5e-05 -0.0478942 0.0332841 -0.104664 0 0 -5.1365e-09 
287 1 0.00033363 9.25122e-05 0.00098713 5e-05 -0.0264145 0.0122707 -0.0934737 0 0 -5.1365e-09 
497 1 0.000343229 0.000175784 0.00092809 5e-05 -0.0446724 0.00518148 -0.116351 0 0 -5.1365e-09 
346 1 0.000325688 0.000178347 0.00107014 5e-05 -0.0301393 0.0177795 -0.116926 0 0 -5.1365e-09 
84 1 0.000427083 0.00012529 0.00104598 5e-05 -0.0292768 0.0271827 -0.0973292 0 0 -5.1365e-09 
224 1 -0.000390967 0.000248951 0.00103067 5e-05 0.00962028 0.0135934 -0.112911 0 0 -5.1365e-09 
389 1 -0.000286478 0.000269603 0.000999736 5e-05 0.029736 -0.0407322 -0.113998 0 0 -5.1365e-09 
74 1 0.00030702 0.000298974 0.00098797 5e-05 -0.0491351 0.014835 -0.0943142 0 0 -5.1365e-09 
476 1 0.000118419 0.000419439 0.000933372 5e-05 0.00648509 -0.023416 -0.0656503 0 0 -5.1365e-09 
317 1 6.78447e-05 -0.000405962 0.0011835 5e-05 -0.00721524 0.0530849 -0.0820678 0 0 -5.1365e-09 
107 1 0.000199989 -0.000441572 0.00120599 5e-05 -0.024614 0.0138561 -0.0663762 0 0 -5.1365e-09 
296 1 0.000291778 -0.000401926 0.00117 5e-05 -0.0121306 0.0397209 -0.0470114 0 0 -5.1365e-09 
227 1 -0.000360869 -0.000273895 0.00119472 5e-05 0.0267836 0.00715341 -0.0828074 0 0 -5.1365e-09 
3 1 -2.32965e-05 -0.000349377 0.00117462 5e-05 0.0142081 0.0519998 -0.088074 0 0 -5.1365e-09 
159 1 0.000344508 -0.000309094 0.00108588 5e-05 -0.0202491 0.00988469 -0.101737 0 0 -5.1365e-09 
429 1 -0.000482401 -0.000106657 0.00112497 5e-05 0.0317411 -0.0170593 -0.0946885 0 0 -5.1365e-09 
337 1 -0.00047629 -0.000205366 0.00122019 5e-05 0.0130799 -0.00955923 -0.102696 0 0 -5.1365e-09 
51 1 -0.000236341 -0.000167578 0.00109396 5e-05 0.0536173 0.00360564 -0.121851 0 0 -5.1365e-09 
165 1 -0.000376955 -0.000160229 0.0011664 5e-05 0.0267613 -0.016306 -0.111944 0 0 -5.1365e-09 
496 1 0.000391433 -0.000177088 0.00110945 5e-05 -0.0115798 0.015764 -0.114732 0 0 -5.1365e-09 
258 1 0.000482052 -0.00017821 0.00120153 5e-05 -0.00321105 0.00433009 -0.0618013 0 0 -5.1365e-09 
45 1 -0.000420247 -2.76022e-05 0.00114019 5e-05 0.0235538 -0.0142663 -0.100794 0 0 -5.1365e-09 
438 1 -0.000506513 -5.81959e-06 0.00119927 5e-05 0.0455723 -0.0070826 -0.0804795 0 0 -5.1365e-09 
214 1 -0.000342153 4.61267e-05 0.00118902 5e-05 0.0199876 -0.00754605 -0.124131 0 0 -5.1365e-09 
455 1 -0.000170792 -7.42277e-05 0.00120499 5e-05 0.0145165 -0.0156057 -0.099573 0 0 -5.1365e-09 
504 1 0.000207405 5.24243e-05 0.00111694 5e-05 -0.0375333 0.0394543 -0.119334 0 0 -5.1365e-09 
34 1 0.000327513 -7.09645e-06 0.00118855 5e-05 -0.0182084 0.00451177 -0.0993502 0 0 -5.1365e-09 
330 1 0.000398198 -4.95312e-05 0.00111146 5e-05 0.0183387 0.037982 -0.12313 0 0 -5.1365e-09 
266 1 0.00048205 1.76371e-05 0.00111924 5e-05 -0.0307556 0.00679513 -0.083086 0 0 -5.1365e-09 
109 1 -0.000389144 0.000143474 0.00120761 5e-05 0.0282547 0.0103684 -0.112572 0 0 -5.1365e-09 
95 1 -0.000361093 0.000170356 0.00108678 5e-05 0.0448841 -0.0533203 -0.119026 0 0 -5.1365e-09 
347 1 -0.000247629 0.000117047 0.00117192 5e-05 0.0223649 0.00709058 -0.108881 0 0 -5.1365e-09 
228 1 2.28629e-05 0.00013604 0.00107998 5e-05 -0.0439509 -0.0505929 -0.0881702 0 0 -5.1365e-09 
225 1 0.000232798 0.000172262 0.00117499 5e-05 -0.0325784 0.0113957 -0.100373 0 0 -5.1365e-09 
282 1 0.000463264 0.000180093 0.0011649 5e-05 -0.046397 -0.00211969 -0.0716173 0 0 -5.1365e-09 
479 1 0.000392816 9.62497e-05 0.00117127 5e-05 -0.0328998 0.0271777 -0.122011 0 0 -5.1365e-09 
11 1 0.000497164 8.80866e-05 0.00119887 5e-05 -0.032222 -0.00665555 -0.0912241 0 0 -5.1365e-09 
140 1 5.42461e-05 0.000360354 0.00111692 5e-05 -0.0180171 -0.0287945 -0.103308 0 0 -5.1365e-09 
244 1 0.000380249 0.000268635 0.00110371 5e-05 -0.0366452 0.0185326 -0.116777 0 0 -5.1365e-09 
174 1 -0.000274146 0.000397967 0.00117048 5e-05 -0.0234413 -0.0815588 -0.0370507 0 0 -5.1365e-09 
502 1 6.40698e-05 0.000495302 0.00113097 5e-05 -0.00233688 -0.0178703 -0.0989111 0 0 -5.1365e-09 
181 1 -1.88126e-05 0.000385532 0.00119315 5e-05 -0.00806372 -0.0465356 -0.0974261 0 0 -5.1365e-09 
218 1 0.000282228 0.000402792 0.00120729 5e-05 -0.0192395 -0.00584947 -0.0791629 0 0 -5.1365e-09 
113 1 -0.000292233 -0.000416063 0.00127906 5e-05 0.0302533 -0.00214568 -0.0722911 0 0 -5.1365e-09 
68 1 -0.000347482 -0.000419696 0.00136353 5e-05 0.0119734 0.000360419 -0.0817529 0 0 -5.1365e-09 
9 1 -7.10178e-05 -0.000506231 0.00125352 5e-05 0.00678737 0.0247327 -0.0643021 0 0 -5.1365e-09 
536 1 5.82002e-05 -0.000425717 0.00128871 5e-05 -0.000629254 0.0197803 -0.082033 0 0 -5.1365e-09 
514 1 -0.00045848 -0.000263061 0.00130193 5e-05 0.0261275 -0.0190963 -0.0832301 0 0 -5.1365e-09 
29 1 -0.00039818 -0.000330942 0.00134468 5e-05 -0.00315069 -0.00575999 -0.0718508 0 0 -5.1365e-09 
400 1 -0.000308688 -0.000274004 0.0013601 5e-05 0.00735629 -0.00927811 -0.0914475 0 0 -5.1365e-09 
316 1 0.000323534 -0.000314442 0.00133906 5e-05 -0.0208822 0.0389342 -0.0462814 0 0 -5.1365e-09 
166 1 0.000459175 -0.000307159 0.00138311 5e-05 -0.00114836 0.0210249 -0.0553489 0 0 -5.1365e-09 
355 1 -0.000527617 -8.42599e-05 0.00127692 5e-05 0.0321557 -0.0029562 -0.0681435 0 0 -5.1365e-09 
103 1 -0.000425491 -0.000127302 0.00127452 5e-05 0.0210057 -0.0125406 -0.106856 0 0 -5.1365e-09 
83 1 -0.000508189 -0.000176592 0.00138047 5e-05 0.0164698 0.0165946 -0.0728805 0 0 -5.1365e-09 
191 1 -0.000343028 -0.000196129 0.00130715 5e-05 0.0119628 -0.0269981 -0.0928395 0 0 -5.1365e-09 
204 1 -0.000249542 -0.000143415 0.00127773 5e-05 0.022064 -0.0286828 -0.0949353 0 0 -5.1365e-09 
155 1 0.000268127 -0.000106488 0.00127053 5e-05 -0.0378876 0.0199546 -0.0906145 0 0 -5.1365e-09 
325 1 0.000378475 -0.000112568 0.00123241 5e-05 -0.0658822 0.0387514 -0.0860712 0 0 -5.1365e-09 
467 1 0.000368942 -8.71948e-05 0.00134021 5e-05 -0.0020542 -0.00383489 -0.0929638 0 0 -5.1365e-09 
215 1 0.000447574 -0.00019327 0.00135884 5e-05 -0.0328037 0.031596 -0.0721902 0 0 -5.1365e-09 
27 1 0.000543847 -0.000100429 0.00136953 5e-05 -0.0334667 0.00230054 -0.0468289 0 0 -5.1365e-09 
111 1 -0.000558161 -2.8304e-06 0.00133661 5e-05 0.0388916 -0.0162167 -0.0590812 0 0 -5.1365e-09 
506 1 -0.000452151 3.41672e-07 0.00129245 5e-05 0.0297294 0.00508677 -0.098391 0 0 -5.1365e-09 
312 1 -0.000322139 -7.29127e-05 0.00128078 5e-05 0.0239662 -0.0286305 -0.0979614 0 0 -5.1365e-09 
431 1 -0.000244906 -8.37163e-06 0.00128857 5e-05 0.0324941 -0.0103705 -0.0880168 0 0 -5.1365e-09 
329 1 -0.00033469 -4.54578e-06 0.00135463 5e-05 0.0207291 -0.0284451 -0.106886 0 0 -5.1365e-09 
82 1 8.85973e-05 1.59393e-05 0.00136539 5e-05 -0.0582155 -0.0180804 -0.0649575 0 0 -5.1365e-09 
304 1 0.000321151 3.64488e-05 0.00132337 5e-05 -0.00768493 0.00314595 -0.093958 0 0 -5.1365e-09 
100 1 0.000429999 -2.45784e-05 0.00127244 5e-05 -0.0387543 0.0169034 -0.0882056 0 0 -5.1365e-09 
208 1 0.000530158 -2.67919e-06 0.00124622 5e-05 -0.0206083 0.00261306 -0.077051 0 0 -5.1365e-09 
194 1 0.00051777 1.021e-05 0.00136026 5e-05 0.010617 0.00326108 -0.0854453 0 0 -5.1365e-09 
339 1 -0.000539098 0.000115093 0.00135052 5e-05 0.00586243 -0.00847558 -0.0702332 0 0 -5.1365e-09 
351 1 -0.000515358 0.000110792 0.00125143 5e-05 0.0048252 -0.00463212 -0.0795249 0 0 -5.1365e-09 
297 1 -0.000417108 0.000229215 0.00125363 5e-05 0.0208417 -0.0225638 -0.0959433 0 0 -5.1365e-09 
179 1 -0.000417433 8.30715e-05 0.00137576 5e-05 -0.00567097 -0.0237696 -0.078717 0 0 -5.1365e-09 
547 1 0.000295536 0.000130943 0.00128697 5e-05 -0.0420169 0.0252196 -0.0817412 0 0 -5.1365e-09 
135 1 0.000367604 0.000210139 0.0012402 5e-05 -0.0439153 0.0364441 -0.0804372 1.01287e-07 -1.72652e-07 -7.39436e-08 
371 1 0.000322326 0.000204114 0.00138044 5e-05 -0.0298536 0.00115212 -0.0685494 0 0 -5.1365e-09 
175 1 0.000519399 0.000152588 0.00129629 5e-05 -0.00147625 0.00916444 -0.0944426 0 0 -5.1365e-09 
195 1 0.000440629 8.55626e-05 0.00130973 5e-05 -0.0190621 -0.0124093 -0.0973672 0 0 -5.1365e-09 
408 1 -0.000426091 0.000345697 0.0013368 5e-05 0.00855656 -0.0332929 -0.0583892 0 0 -5.1365e-09 
413 1 0.000337795 0.000305289 0.00123269 5e-05 -0.0230604 0.0268167 -0.0958316 -1.01287e-07 1.72652e-07 6.36706e-08 
290 1 0.000417421 0.000359535 0.00132619 5e-05 -0.0249737 -0.0186495 -0.0458999 0 0 -5.1365e-09 
444 1 0.000455183 0.000235003 0.00134613 5e-05 -0.0158369 0.0132846 -0.0700046 0 0 -5.1365e-09 
394 1 -0.000177049 0.00047229 0.00128626 5e-05 -0.0427002 0.00611165 -0.0895 0 0 -5.1365e-09 
88 1 -0.000139108 0.000508741 0.00138327 5e-05 -0.0400575 -0.0149768 -0.0724542 0 0 -5.1365e-09 
548 1 -3.554e-05 0.000531796 0.00127693 5e-05 -0.00854195 -0.0113418 -0.0380309 0 0 -5.1365e-09 
494 1 -1.12371e-05 0.0005151 0.00137295 5e-05 -0.0116575 -0.0323694 -0.0547493 0 0 -5.1365e-09 
207 1 -4.83039e-05 -0.000574316 0.00145369 5e-05 0.032429 0.00913381 -0.0508289 0 0 -5.1365e-09 
553 1 9.13919e-05 -0.000555803 0.00143763 5e-05 0.053926 0.0251093 -0.0247833 0 0 -5.1365e-09 
373 1 0.000165503 -0.000570148 0.00152353 5e-05 0.0167516 0.0134776 -0.0485515 0 0 -5.1365e-09 
516 1 -0.000364339 -0.00046783 0.00151354 5e-05 0.0146665 0.0132945 -0.0472167 0 0 -5.1365e-09 
67 1 -0.000250076 -0.000528652 0.00153125 5e-05 0.0216202 -0.00653075 -0.0221655 0 0 -5.1365e-09 
283 1 -0.000173514 -0.000516933 0.00145896 5e-05 0.00775486 0.00975003 -0.0316005 0 0 -5.1365e-09 
382 1 0.00011472 -0.000415874 0.00142605 5e-05 0.00128526 0.000876175 -0.0550009 0 0 -5.1365e-09 
188 1 0.000205129 -0.000487017 0.00148084 5e-05 0.00963535 -0.0113363 -0.0409337 0 0 -5.1365e-09 
298 1 0.000232248 -0.00051554 0.00138864 5e-05 0.0126783 0.0315419 -0.040203 0 0 -5.1365e-09 
118 1 0.000330642 -0.000475302 0.0014965 5e-05 0.0118888 0.00920578 -0.039261 0 0 -5.1365e-09 
255 1 0.000428328 -0.00040803 0.00153837 5e-05 -0.00477211 0.0575227 0.00876655 0 0 -5.1365e-09 
430 1 -0.000540871 -0.000244218 0.00149977 5e-05 0.0114009 -0.00320661 -0.0607005 0 0 -5.1365e-09 
237 1 -0.000479423 -0.000299276 0.00142507 5e-05 0.0027852 0.0151625 -0.0736416 0 0 -5.1365e-09 
336 1 -0.000399805 -0.000366573 0.0014778 5e-05 0.00723896 0.010232 -0.0774459 0 0 -5.1365e-09 
368 1 -0.000296734 -0.000339236 0.00149771 5e-05 0.0112213 0.00261314 -0.0519816 0 0 -5.1365e-09 
99 1 -0.000178134 -0.000321594 0.0015367 5e-05 0.0143164 0.0144444 -0.0274264 0 0 -5.1365e-09 
131 1 0.000147285 -0.000335705 0.00152677 5e-05 0.042289 -0.011911 -0.0342583 0 0 -5.1365e-09 
236 1 0.000235058 -0.000384603 0.00151504 5e-05 0.00975649 -0.00482097 -0.0393763 0 0 -5.1365e-09 
31 1 -0.000562216 -0.000107382 0.0015283 5e-05 -0.00526178 0.0199887 -0.0563074 0 0 -5.1365e-09 
295 1 -0.000417603 -0.000216361 0.00139916 5e-05 0.0226199 -0.0145271 -0.0690856 0 0 -5.1365e-09 
263 1 -0.000433946 -0.00013926 0.00148427 5e-05 -0.00454972 -0.00914373 -0.0748347 0 0 -5.1365e-09 
397 1 -0.00038753 -8.97817e-05 0.0013893 5e-05 0.0054419 -0.0207323 -0.0894407 0 0 -5.1365e-09 
343 1 -0.000285863 -0.00016836 0.00142306 5e-05 0.0141031 -0.00646645 -0.0748846 0 0 -5.1365e-09 
80 1 -0.000233207 -0.000109167 0.00150508 5e-05 -0.00177714 0.0203221 -0.0461837 0 0 -5.1365e-09 
43 1 -0.000196051 -0.000214863 0.0015111 5e-05 0.0102926 -0.00393755 -0.0357856 0 0 -5.1365e-09 
233 1 0.000426139 -0.000101871 0.00144063 5e-05 -0.00435158 0.00219113 -0.0625595 0 0 -5.1365e-09 
294 1 0.000527403 -0.000150331 0.00146066 5e-05 -0.0335734 0.0187803 -0.0419775 0 0 -5.1365e-09 
46 1 -0.00056205 -6.0467e-05 0.00142676 5e-05 -0.00335639 -0.0276236 -0.087683 0 0 -5.1365e-09 
184 1 -0.000547814 4.15491e-05 0.00142588 5e-05 -0.0230461 -0.0286883 -0.0691348 0 0 -5.1365e-09 
338 1 -0.000542535 2.12499e-05 0.00152543 5e-05 -0.102043 -0.0434365 -0.0404354 0 0 -5.1365e-09 
532 1 -0.000460257 -1.41296e-05 0.00141782 5e-05 0.00053338 -0.0193015 -0.0727318 0 0 -5.1365e-09 
334 1 -0.000443241 -3.9701e-05 0.00152701 5e-05 0.00266711 -0.0114712 -0.0691861 0 0 -5.1365e-09 
360 1 -0.000327285 -2.87175e-05 0.00148472 5e-05 -0.0128993 -0.00131219 -0.0640129 0 0 -5.1365e-09 
512 1 0.000392306 -4.80824e-06 0.00141356 5e-05 0.00191048 -0.00211754 -0.0901888 0 0 -5.1365e-09 
465 1 0.000532491 5.80898e-05 0.00145974 5e-05 0.015562 -0.00815793 -0.0827079 0 0 -5.1365e-09 
345 1 0.000392656 6.05678e-05 0.00153792 5e-05 -0.00911951 -0.0282268 -0.0496982 0 0 -5.1365e-09 
407 1 0.000602525 1.82364e-05 0.00153763 5e-05 -0.0168109 -0.00153654 -0.0341324 0 0 -5.1365e-09 
267 1 -0.000503611 0.000164148 0.00143509 5e-05 -0.0165915 0.00631798 -0.0636524 0 0 -5.1365e-09 
76 1 -0.000467411 9.08545e-05 0.00151144 5e-05 -0.0445394 -0.100985 -0.0226153 0 0 -5.1365e-09 
205 1 0.000357646 9.69998e-05 0.00142113 5e-05 0.00908137 0.0174566 -0.0876088 0 0 -5.1365e-09 
272 1 0.000258036 0.000105986 0.00146085 5e-05 -0.00653822 0.0048561 -0.0597844 0 0 -5.1365e-09 
515 1 0.000376841 0.000181221 0.00152891 5e-05 0.00859845 -0.00274436 -0.0483713 0 0 -5.1365e-09 
21 1 0.000446918 0.000147337 0.00145113 5e-05 -0.0139469 -0.00861831 -0.091034 0 0 -5.1365e-09 
44 1 0.000551796 0.000206756 0.00146984 5e-05 0.00370487 0.0100442 -0.0542611 0 0 -5.1365e-09 
210 1 -0.000499287 0.000265556 0.00145574 5e-05 0.0131574 -0.00424677 -0.0491667 0 0 -5.1365e-09 
280 1 -0.000231757 0.000361035 0.00152209 5e-05 -0.0340531 -0.00434125 -0.0280596 0 0 -5.1365e-09 
273 1 -0.000191829 0.000382178 0.00142797 5e-05 -0.0607363 0.0127432 -0.044047 0 0 -5.1365e-09 
134 1 0.000208781 0.000325192 0.00150627 5e-05 -0.0123658 0.0142697 -0.044462 0 0 -5.1365e-09 
72 1 0.000341168 0.000283482 0.00145744 5e-05 -0.00161096 -0.0137007 -0.0596601 0 0 -5.1365e-09 
66 1 0.000262578 0.000231709 0.00153036 5e-05 -0.0120168 0.0191345 -0.0415306 0 0 -5.1365e-09 
71 1 0.000348545 0.000375688 0.00152084 5e-05 -0.0122367 -0.00560941 -0.047427 0 0 -5.1365e-09 
419 1 0.000461236 0.000300427 0.00143156 5e-05 -0.0144105 -0.0211521 -0.053721 0 0 -5.1365e-09 
418 1 0.00044804 0.000384244 0.00150972 5e-05 -0.014242 -0.0111312 -0.0397859 0 0 -5.1365e-09 
16 1 0.000501014 0.000290998 0.00153471 5e-05 -0.0146986 -0.00501087 -0.0458747 0 0 -5.1365e-09 
505 1 -0.00044192 0.000392886 0.00148317 5e-05 -0.0331155 -0.0203031 -0.0039699 1.00683e-08 4.75818e-10 -1.35487e-08 
223 1 -0.000319716 0.000485556 0.00149173 5e-05 -0.00954872 -0.0231844 -0.0261586 0 0 -5.1365e-09 
435 1 -0.000215561 0.00049668 0.0014668 5e-05 -0.00983544 -0.00463264 -0.0528241 0 0 -5.1365e-09 
56 1 -0.000150141 0.000447305 0.00153802 5e-05 -0.0259928 -0.00418819 -0.028514 0 0 -5.1365e-09 
450 1 0.000245591 0.000427369 0.00148224 5e-05 -0.0133193 -0.0191503 -0.0517671 0 0 -5.1365e-09 
391 1 0.000384377 0.000410531 0.00141102 5e-05 -0.00747214 -0.00709592 -0.0649984 0 0 -5.1365e-09 
173 1 -0.000149684 0.000570725 0.00151251 5e-05 -0.00892749 -0.0108068 -0.0347681 0 0 -5.1365e-09 
106 1 0.000127931 0.000546132 0.00153752 5e-05 -0.0180315 0.0155253 -0.0166765 0 0 -5.1365e-09 
556 1 -0.000160396 -0.000593593 0.00161958 5e-05 0.0091533 0.00696666 -0.0032729 0 0 -5.1365e-09 
200 1 -5.84038e-05 -0.000607776 0.00164738 5e-05 0.00107427 0.00599981 -0.00699766 0 0 -5.1365e-09 
569 1 3.63277e-05 -0.000611081 0.00161498 5e-05 0.0167259 -0.00168793 0.0109156 0 0 -5.1365e-09 
375 1 1.17995e-06 -0.000540878 0.00154816 5e-05 0.0119107 0.0141882 -0.00740281 0 0 -5.1365e-09 
341 1 0.000216942 -0.000570938 0.00168316 5e-05 0.0144524 -0.00544556 -0.0108142 0 0 -5.1365e-09 
452 1 9.62282e-05 -0.000546272 0.00167089 5e-05 0.0259866 -0.0118956 -0.0260191 0 0 -5.1365e-09 
545 1 0.000264319 -0.000548739 0.00157894 5e-05 0.00834007 -0.00255995 -0.0412576 0 0 -5.1365e-09 
399 1 -0.000434821 -0.000434794 0.00163917 5e-05 0.0031388 0.00329741 -0.0398685 0 0 -5.1365e-09 
112 1 -0.000343649 -0.000390801 0.0015815 5e-05 0.00483938 0.0276321 -0.0555895 0 0 -5.1365e-09 
335 1 -0.000177442 -0.000461115 0.00154686 5e-05 0.0231751 -0.00666917 -0.00500881 0 0 -5.1365e-09 
85 1 -0.000212642 -0.000508713 0.00163028 5e-05 0.00995383 -0.000734281 -0.0175312 0 0 -5.1365e-09 
284 1 -0.000109058 -0.00050786 0.0016113 5e-05 0.019217 -0.00473435 0.00870548 0 0 -5.1365e-09 
167 1 -0.000170832 -0.000415864 0.00164158 5e-05 0.00764629 0.00651162 -0.00596937 0 0 -5.1365e-09 
523 1 -5.49087e-05 -0.000444743 0.0015506 5e-05 0.0276078 -0.0103483 0.00398708 6.84823e-08 8.59617e-08 -3.93234e-07 
4 1 -5.61872e-05 -0.000422895 0.00164816 5e-05 0.017801 0.0164679 -0.00439245 -6.84823e-08 -8.59617e-08 3.82961e-07 
41 1 4.63521e-05 -0.000446043 0.00166296 5e-05 0.0253259 0.00676369 -0.0239782 0 0 -5.1365e-09 
554 1 6.11331e-05 -0.000398716 0.00157288 5e-05 0.0166865 -0.00979458 -0.027182 0 0 -5.1365e-09 
257 1 -3.72897e-05 -0.000518257 0.00169018 5e-05 0.0220489 0.00874779 -0.00266337 0 0 -5.1365e-09 
14 1 0.000104619 -0.000496533 0.00157296 5e-05 0.0087896 0.000733572 -0.0209033 0 0 -5.1365e-09 
203 1 0.000141157 -0.000400076 0.00165001 5e-05 0.00685752 0.00771858 -0.00656611 0 0 -5.1365e-09 
511 1 0.000206948 -0.000468594 0.00161377 5e-05 0.0143771 0.025389 -0.0263861 0 0 -5.1365e-09 
513 1 0.000324307 -0.000522669 0.00165618 5e-05 -0.00823724 -0.000324468 -0.0251904 0 0 -5.1365e-09 
361 1 0.000284661 -0.000406626 0.00164305 5e-05 0.0156708 0.0110477 -0.0158764 0 0 -5.1365e-09 
102 1 0.000390869 -0.000407794 0.00163666 5e-05 0.0134224 0.0165067 0.018852 0 0 -5.1365e-09 
357 1 -0.000571615 -0.000264811 0.0016796 5e-05 0.0122444 -0.0166443 -0.0291772 0 0 -5.1365e-09 
417 1 -0.000481959 -0.00031491 0.00154371 5e-05 -0.0127921 -0.0100885 -0.0601963 0 0 -5.1365e-09 
396 1 -0.000492096 -0.000337729 0.00167627 5e-05 0.0151459 0.00767394 -0.0402485 0 0 -5.1365e-09 
18 1 -0.000354487 -0.000255803 0.0015543 5e-05 0.00337126 0.00344595 -0.0523362 0 0 -5.1365e-09 