ITEM: TIMESTEP
6000
ITEM: NUMBER OF ATOMS
571
ITEM: BOX BOUNDS ff ff ff
-0.001 0.001
-0.001 0.001
0 0.004
ITEM: ATOMS id type x y z radius vx vy vz fx fy fz 
453 1 -0.00030948 -0.000432109 0.00187391 5e-05 0 0 -0.0588551 0 0 -5.1365e-09 
553 1 -9.86761e-05 -0.000448887 0.00187754 5e-05 0 0 -0.0588551 0 0 -5.1365e-09 
196 1 -0.000194705 -0.000407115 0.00194011 5e-05 0 0 -0.0588551 0 0 -5.1365e-09 
401 1 6.64348e-05 -0.00043074 0.00188061 5e-05 0 0 -0.0588551 0 0 -5.1365e-09 
73 1 0.00031044 -0.000428298 0.00192046 5e-05 0 0 -0.0588551 0 0 -5.1365e-09 
379 1 -0.000437816 -0.000370288 0.00188702 5e-05 0 0 -0.0588551 0 0 -5.1365e-09 
242 1 -0.000353441 -0.000289726 0.0019012 5e-05 0 0 -0.0588551 0 0 -5.1365e-09 
551 1 -0.000252177 -0.000340599 0.00188004 5e-05 0 0 -0.0588551 0 0 -5.1365e-09 
305 1 -0.000187616 -0.000257358 0.00190516 5e-05 0 0 -0.0588551 0 0 -5.1365e-09 
538 1 -0.000116638 -0.000334709 0.00187697 5e-05 0 0 -0.0588551 0 0 -5.1365e-09 
70 1 7.44163e-05 -0.000284611 0.00187381 5e-05 0 0 -0.0588551 0 0 -5.1365e-09 
188 1 -2.52493e-05 -0.000364395 0.00193001 5e-05 0 0 -0.0588551 0 0 -5.1365e-09 
328 1 0.000198705 -0.000358863 0.00190955 5e-05 0 0 -0.0588551 0 0 -5.1365e-09 
250 1 0.000169259 -0.000260153 0.00193331 5e-05 0 0 -0.0588551 0 0 -5.1365e-09 
526 1 0.000284568 -0.000258846 0.00189793 5e-05 0 0 -0.0588551 0 0 -5.1365e-09 
199 1 0.000409985 -0.000380998 0.0018953 5e-05 0 0 -0.0588551 0 0 -5.1365e-09 
24 1 0.000420286 -0.000249681 0.00194261 5e-05 0 0 -0.0588551 0 0 -5.1365e-09 
449 1 -0.000445244 -0.000209581 0.00189611 5e-05 0 0 -0.0588551 0 0 -5.1365e-09 
342 1 -0.000359323 -0.00013497 0.00189064 5e-05 0 0 -0.0588551 0 0 -5.1365e-09 
43 1 -0.000273111 -0.000171797 0.00193917 5e-05 0 0 -0.0588551 0 0 -5.1365e-09 
80 1 -0.000123645 -9.58171e-05 0.00192474 5e-05 0 0 -0.0588551 0 0 -5.1365e-09 
131 1 -5.28473e-05 -0.000204939 0.00191971 5e-05 0 0 -0.0588551 0 0 -5.1365e-09 
414 1 5.91909e-05 -0.000177928 0.00189135 5e-05 0 0 -0.0588551 0 0 -5.1365e-09 
251 1 0.000175992 -9.63554e-05 0.00187879 5e-05 0 0 -0.0588551 0 0 -5.1365e-09 
36 1 0.000250422 -0.000160493 0.00191442 5e-05 0 0 -0.0588551 0 0 -5.1365e-09 
318 1 0.000345501 -0.00017061 0.00188272 5e-05 0 0 -0.0588551 0 0 -5.1365e-09 
490 1 0.000431123 -0.000109445 0.00187477 5e-05 0 0 -0.0588551 0 0 -5.1365e-09 
468 1 -0.00044862 4.76923e-05 0.00188759 5e-05 0 0 -0.0588551 0 0 -5.1365e-09 
285 1 -0.000340987 2.36555e-05 0.00190226 5e-05 0 0 -0.0588551 0 0 -5.1365e-09 
40 1 -9.4722e-05 8.00742e-06 0.00190408 5e-05 0 0 -0.0588551 0 0 -5.1365e-09 
153 1 -0.000187538 5.06082e-05 0.00189493 5e-05 0 0 -0.0588551 0 0 -5.1365e-09 
446 1 4.22583e-06 2.34753e-05 0.00187361 5e-05 0 0 -0.0588551 0 0 -5.1365e-09 
405 1 2.21888e-05 -7.32661e-05 0.00194037 5e-05 0 0 -0.0588551 0 0 -5.1365e-09 
91 1 0.000108883 -7.3797e-07 0.00192039 5e-05 0 0 -0.0588551 0 0 -5.1365e-09 
256 1 0.000213009 4.44805e-05 0.0019071 5e-05 0 0 -0.0588551 0 0 -5.1365e-09 
186 1 0.000438566 -1.64454e-05 0.00192615 5e-05 0 0 -0.0588551 0 0 -5.1365e-09 
243 1 -0.000449149 0.000154198 0.00192204 5e-05 0 0 -0.0588551 0 0 -5.1365e-09 
209 1 -0.000255833 0.000219585 0.00188951 5e-05 0 0 -0.0588551 0 0 -5.1365e-09 
182 1 -0.00030772 0.000152592 0.00194454 5e-05 0 0 -0.0588551 0 0 -5.1365e-09 
353 1 -0.000157363 0.000204948 0.0018792 5e-05 0 0 -0.0588551 0 0 -5.1365e-09 
472 1 -9.48945e-05 0.00010779 0.00194593 5e-05 0 0 -0.0588551 0 0 -5.1365e-09 
192 1 -1.76605e-05 0.000179722 0.00190665 5e-05 0 0 -0.0588551 0 0 -5.1365e-09 
406 1 7.25948e-05 0.000101184 0.00192792 5e-05 0 0 -0.0588551 0 0 -5.1365e-09 
521 1 0.000144177 0.000186445 0.00190146 5e-05 0 0 -0.0588551 0 0 -5.1365e-09 
134 1 0.000270017 0.000182219 0.00188639 5e-05 0 0 -0.0588551 0 0 -5.1365e-09 
497 1 0.000300357 9.65438e-05 0.00193473 5e-05 0 0 -0.0588551 0 0 -5.1365e-09 
84 1 0.000411501 9.14863e-05 0.00193437 5e-05 0 0 -0.0588551 0 0 -5.1365e-09 
471 1 -0.000442295 0.000347091 0.00188063 5e-05 0 0 -0.0588551 0 0 -5.1365e-09 
252 1 -0.000360369 0.000275219 0.00192257 5e-05 0 0 -0.0588551 0 0 -5.1365e-09 
308 1 -0.000251245 0.000320616 0.00191175 5e-05 0 0 -0.0588551 0 0 -5.1365e-09 
475 1 -0.000119158 0.000303956 0.00192028 5e-05 0 0 -0.0588551 0 0 -5.1365e-09 
435 1 1.34075e-05 0.000339058 0.00187371 5e-05 0 0 -0.0588551 0 0 -5.1365e-09 
273 1 5.18991e-05 0.000267782 0.00193615 5e-05 0 0 -0.0588551 0 0 -5.1365e-09 
174 1 0.000132347 0.000364288 0.0019108 5e-05 0 0 -0.0588551 0 0 -5.1365e-09 
529 1 0.000227725 0.000373449 0.00187723 5e-05 0 0 -0.0588551 0 0 -5.1365e-09 
90 1 0.000214569 0.000254811 0.00193423 5e-05 0 0 -0.0588551 0 0 -5.1365e-09 
57 1 0.000338749 0.000350902 0.00193431 5e-05 0 0 -0.0588551 0 0 -5.1365e-09 
290 1 0.000403241 0.000267481 0.00188443 5e-05 0 0 -0.0588551 0 0 -5.1365e-09 
128 1 -0.00035203 0.00043902 0.00192646 5e-05 0 0 -0.0588551 0 0 -5.1365e-09 
384 1 -7.72656e-05 0.000397546 0.00187645 5e-05 0 0 -0.0588551 0 0 -5.1365e-09 
425 1 -0.000226367 0.000448181 0.00190759 5e-05 0 0 -0.0588551 0 0 -5.1365e-09 
548 1 6.72006e-05 0.00043985 0.00187782 5e-05 0 0 -0.0588551 0 0 -5.1365e-09 
422 1 0.000362495 0.000449073 0.00190132 5e-05 0 0 -0.0588551 0 0 -5.1365e-09 
493 1 0.000449539 0.00039951 0.0018902 5e-05 0 0 -0.0588551 0 0 -5.1365e-09 
473 1 -0.000439545 -0.000432994 0.00199224 5e-05 0 0 -0.0588551 0 0 -5.1365e-09 
89 1 -0.000302222 -0.000443821 0.00201627 5e-05 0 0 -0.0588551 0 0 -5.1365e-09 
42 1 -0.000186553 -0.000394077 0.00206664 5e-05 0 0 -0.0588551 0 0 -5.1365e-09 
317 1 -0.000102185 -0.000418834 0.00197681 5e-05 0 0 -0.0588551 0 0 -5.1365e-09 
107 1 1.46697e-05 -0.000447036 0.00199304 5e-05 0 0 -0.0588551 0 0 -5.1365e-09 
545 1 6.92896e-05 -0.000449469 0.0020976 5e-05 0 0 -0.0588551 0 0 -5.1365e-09 
291 1 0.000139677 -0.000441444 0.00197401 5e-05 0 0 -0.0588551 0 0 -5.1365e-09 
528 1 0.000244277 -0.000437575 0.00200057 5e-05 0 0 -0.0588551 0 0 -5.1365e-09 
402 1 0.000344355 -0.000426264 0.00209643 5e-05 0 0 -0.0588551 0 0 -5.1365e-09 
331 1 0.000448715 -0.00044007 0.00206791 5e-05 0 0 -0.0588551 0 0 -5.1365e-09 
558 1 0.000393443 -0.000401817 0.00199288 5e-05 0 0 -0.0588551 0 0 -5.1365e-09 
227 1 -0.000394439 -0.000344516 0.00203952 5e-05 0 0 -0.0588551 0 0 -5.1365e-09 
29 1 -0.000348083 -0.000237298 0.00204831 5e-05 0 0 -0.0588551 0 0 -5.1365e-09 
99 1 -0.000234978 -0.000279958 0.00206565 5e-05 0 0 -0.0588551 0 0 -5.1365e-09 
489 1 -0.000282578 -0.00028276 0.00197399 5e-05 0 0 -0.0588551 0 0 -5.1365e-09 
335 1 -0.000307036 -0.000355997 0.00208964 5e-05 0 0 -0.0588551 0 0 -5.1365e-09 
549 1 -0.000157453 -0.000312092 0.00198896 5e-05 0 0 -0.0588551 0 0 -5.1365e-09 
22 1 7.49544e-05 -0.00024218 0.00200348 5e-05 0 0 -0.0588551 0 0 -5.1365e-09 
382 1 -5.90413e-05 -0.000307867 0.00200692 5e-05 0 0 -0.0588551 0 0 -5.1365e-09 
156 1 0.000106839 -0.000353678 0.00205772 5e-05 0 0 -0.0588551 0 0 -5.1365e-09 
541 1 0.000153077 -0.000232417 0.00208969 5e-05 0 0 -0.0588551 0 0 -5.1365e-09 
23 1 0.000244402 -0.000340648 0.00205168 5e-05 0 0 -0.0588551 0 0 -5.1365e-09 
322 1 0.00032068 -0.000332026 0.00196375 5e-05 0 0 -0.0588551 0 0 -5.1365e-09 
222 1 0.000442057 -0.000340112 0.00205522 5e-05 0 0 -0.0588551 0 0 -5.1365e-09 
168 1 -0.000416383 -0.000154122 0.00199412 5e-05 0 0 -0.0588551 0 0 -5.1365e-09 
281 1 -0.000311902 -0.000139959 0.00203726 5e-05 0 0 -0.0588551 0 0 -5.1365e-09 
81 1 -0.000170237 -0.000180834 0.0020459 5e-05 0 0 -0.0588551 0 0 -5.1365e-09 
427 1 -7.95632e-05 -0.000218496 0.0020652 5e-05 0 0 -0.0588551 0 0 -5.1365e-09 
376 1 3.25359e-05 -0.000169885 0.00205894 5e-05 0 0 -0.0588551 0 0 -5.1365e-09 
555 1 -7.61071e-05 -0.000132404 0.00200891 5e-05 0 0 -0.0588551 0 0 -5.1365e-09 
124 1 -4.17136e-05 -8.07542e-05 0.00208843 5e-05 0 0 -0.0588551 0 0 -5.1365e-09 
25 1 0.000177835 -0.000119492 0.00202272 5e-05 0 0 -0.0588551 0 0 -5.1365e-09 
299 1 0.000235603 -0.000213501 0.00201109 5e-05 0 0 -0.0588551 0 0 -5.1365e-09 
508 1 0.00033217 -0.000219393 0.00198106 5e-05 0 0 -0.0588551 0 0 -5.1365e-09 
86 1 0.000294038 -0.000104673 0.00208324 5e-05 0 0 -0.0588551 0 0 -5.1365e-09 
350 1 0.0003862 -0.000129728 0.00198119 5e-05 0 0 -0.0588551 0 0 -5.1365e-09 
37 1 0.000405236 -0.000193208 0.00207864 5e-05 0 0 -0.0588551 0 0 -5.1365e-09 
26 1 -0.000427857 1.1732e-06 0.00204145 5e-05 0 0 -0.0588551 0 0 -5.1365e-09 
239 1 -0.000406024 -5.13099e-05 0.00195861 5e-05 0 0 -0.0588551 0 0 -5.1365e-09 
92 1 -0.000258587 -6.91003e-05 0.00195535 5e-05 0 0 -0.0588551 0 0 -5.1365e-09 
321 1 -0.000231806 4.05007e-05 0.0020194 5e-05 0 0 -0.0588551 0 0 -5.1365e-09 
30 1 -0.000285657 -3.05963e-05 0.00209185 5e-05 0 0 -0.0588551 0 0 -5.1365e-09 
455 1 -0.000187722 -5.11855e-05 0.00204951 5e-05 0 0 -0.0588551 0 0 -5.1365e-09 
564 1 -0.000117748 1.67597e-05 0.00200306 5e-05 0 0 -0.0588551 0 0 -5.1365e-09 
98 1 4.84891e-05 -4.41644e-05 0.00205276 5e-05 0 0 -0.0588551 0 0 -5.1365e-09 
169 1 -1.90972e-05 3.34786e-05 0.00199808 5e-05 0 0 -0.0588551 0 0 -5.1365e-09 
359 1 -6.28892e-05 2.12866e-05 0.00208747 5e-05 0 0 -0.0588551 0 0 -5.1365e-09 
158 1 0.000102579 4.8356e-05 0.00204198 5e-05 0 0 -0.0588551 0 0 -5.1365e-09 
287 1 0.000209858 7.54881e-05 0.00205235 5e-05 0 0 -0.0588551 0 0 -5.1365e-09 
132 1 0.000312488 -1.65036e-05 0.0019473 5e-05 0 0 -0.0588551 0 0 -5.1365e-09 
441 1 0.000374904 1.14678e-05 0.00206238 5e-05 0 0 -0.0588551 0 0 -5.1365e-09 
459 1 0.000243528 -2.1735e-05 0.00202333 5e-05 0 0 -0.0588551 0 0 -5.1365e-09 
367 1 -0.000398577 0.000116244 0.00203896 5e-05 0 0 -0.0588551 0 0 -5.1365e-09 
463 1 -0.000441886 0.000218526 0.00208555 5e-05 0 0 -0.0588551 0 0 -5.1365e-09 
326 1 -0.000359183 0.000217927 0.00201666 5e-05 0 0 -0.0588551 0 0 -5.1365e-09 
485 1 -0.0002478 0.000221262 0.00206757 5e-05 0 0 -0.0588551 0 0 -5.1365e-09 
49 1 -0.000320099 9.09605e-05 0.00209732 5e-05 0 0 -0.0588551 0 0 -5.1365e-09 
235 1 -0.000202941 0.000177049 0.00198043 5e-05 0 0 -0.0588551 0 0 -5.1365e-09 
364 1 -7.04994e-05 0.000117078 0.0020572 5e-05 0 0 -0.0588551 0 0 -5.1365e-09 
499 1 6.92087e-05 0.000191271 0.00200917 5e-05 0 0 -0.0588551 0 0 -5.1365e-09 
280 1 1.86928e-05 0.000170689 0.00209893 5e-05 0 0 -0.0588551 0 0 -5.1365e-09 
161 1 0.000162142 0.000118739 0.00197342 5e-05 0 0 -0.0588551 0 0 -5.1365e-09 
11 1 0.000370448 0.000113983 0.00203054 5e-05 0 0 -0.0588551 0 0 -5.1365e-09 
225 1 0.000274241 0.000160689 0.0020285 5e-05 0 0 -0.0588551 0 0 -5.1365e-09 
413 1 0.00035873 0.000179546 0.00195438 5e-05 0 0 -0.0588551 0 0 -5.1365e-09 
282 1 0.00038985 0.000202937 0.00208786 5e-05 0 0 -0.0588551 0 0 -5.1365e-09 
482 1 -0.000444796 0.000316459 0.00205317 5e-05 0 0 -0.0588551 0 0 -5.1365e-09 
509 1 -0.00044718 0.000245472 0.00197249 5e-05 0 0 -0.0588551 0 0 -5.1365e-09 
183 1 -0.000312053 0.000329432 0.00208269 5e-05 0 0 -0.0588551 0 0 -5.1365e-09 
115 1 -0.000180977 0.000312177 0.00207705 5e-05 0 0 -0.0588551 0 0 -5.1365e-09 
157 1 -0.000170145 0.000380237 0.00196773 5e-05 0 0 -0.0588551 0 0 -5.1365e-09 
202 1 -8.09043e-05 0.000241428 0.00199921 5e-05 0 0 -0.0588551 0 0 -5.1365e-09 
394 1 -5.87144e-06 0.000318777 0.00201609 5e-05 0 0 -0.0588551 0 0 -5.1365e-09 
181 1 0.000102177 0.000288376 0.0020667 5e-05 0 0 -0.0588551 0 0 -5.1365e-09 
358 1 0.000161859 0.00036721 0.00201456 5e-05 0 0 -0.0588551 0 0 -5.1365e-09 
498 1 0.00020493 0.000262969 0.00204077 5e-05 0 0 -0.0588551 0 0 -5.1365e-09 
450 1 0.00033113 0.000306343 0.00203688 5e-05 0 0 -0.0588551 0 0 -5.1365e-09 
74 1 0.000433944 0.000297299 0.00203427 5e-05 0 0 -0.0588551 0 0 -5.1365e-09 
10 1 -0.000421942 0.000416771 0.00199986 5e-05 0 0 -0.0588551 0 0 -5.1365e-09 
108 1 -0.00023107 0.00041374 0.00205324 5e-05 0 0 -0.0588551 0 0 -5.1365e-09 
537 1 -0.000330848 0.00043617 0.00203734 5e-05 0 0 -0.0588551 0 0 -5.1365e-09 
560 1 -9.25543e-05 0.000439381 0.00199407 5e-05 0 0 -0.0588551 0 0 -5.1365e-09 
173 1 3.47608e-06 0.000422481 0.00195859 5e-05 0 0 -0.0588551 0 0 -5.1365e-09 
223 1 -6.13182e-05 0.000424631 0.00209952 5e-05 0 0 -0.0588551 0 0 -5.1365e-09 
60 1 0.000210593 0.000443781 0.00195431 5e-05 0 0 -0.0588551 0 0 -5.1365e-09 
502 1 8.65382e-05 0.000446762 0.0020467 5e-05 0 0 -0.0588551 0 0 -5.1365e-09 
476 1 0.00030716 0.00043605 0.0020129 5e-05 0 0 -0.0588551 0 0 -5.1365e-09 
228 1 0.00023677 0.000392501 0.00208646 5e-05 0 0 -0.0588551 0 0 -5.1365e-09 
218 1 0.000443708 0.000395233 0.00200959 5e-05 0 0 -0.0588551 0 0 -5.1365e-09 
67 1 -0.000401883 -0.000440655 0.00224149 5e-05 0 0 -0.0588551 0 0 -5.1365e-09 
9 1 -0.000262713 -0.000423583 0.00216736 5e-05 0 0 -0.0588551 0 0 -5.1365e-09 
207 1 -0.000150797 -0.000439051 0.00219628 5e-05 0 0 -0.0588551 0 0 -5.1365e-09 
298 1 -3.3703e-05 -0.000446314 0.00211885 5e-05 0 0 -0.0588551 0 0 -5.1365e-09 
569 1 -5.86893e-05 -0.00039038 0.00220238 5e-05 0 0 -0.0588551 0 0 -5.1365e-09 
118 1 0.00013468 -0.000438516 0.00219205 5e-05 0 0 -0.0588551 0 0 -5.1365e-09 
296 1 0.000226664 -0.000449824 0.00213693 5e-05 0 0 -0.0588551 0 0 -5.1365e-09 
159 1 0.000382197 -0.000412039 0.00219028 5e-05 0 0 -0.0588551 0 0 -5.1365e-09 
51 1 -0.000438879 -0.000242405 0.00221938 5e-05 0 0 -0.0588551 0 0 -5.1365e-09 
113 1 -0.000430498 -0.000378246 0.00214532 5e-05 0 0 -0.0588551 0 0 -5.1365e-09 
68 1 -0.000344697 -0.000330523 0.00222041 5e-05 0 0 -0.0588551 0 0 -5.1365e-09 
523 1 -0.000241763 -0.000317139 0.0021607 5e-05 0 0 -0.0588551 0 0 -5.1365e-09 
4 1 -0.000137401 -0.000305893 0.00218463 5e-05 0 0 -0.0588551 0 0 -5.1365e-09 
167 1 -0.000218078 -0.000238595 0.00225313 5e-05 0 0 -0.0588551 0 0 -5.1365e-09 
3 1 -5.00561e-05 -0.000292985 0.0021287 5e-05 0 0 -0.0588551 0 0 -5.1365e-09 
536 1 4.70411e-05 -0.000379673 0.00216586 5e-05 0 0 -0.0588551 0 0 -5.1365e-09 
554 1 3.11031e-05 -0.00024937 0.00216771 5e-05 0 0 -0.0588551 0 0 -5.1365e-09 
141 1 0.000215902 -0.000333261 0.00220048 5e-05 0 0 -0.0588551 0 0 -5.1365e-09 
236 1 0.00011785 -0.000298754 0.0021614 5e-05 0 0 -0.0588551 0 0 -5.1365e-09 
381 1 0.000289447 -0.000260261 0.00211109 5e-05 0 0 -0.0588551 0 0 -5.1365e-09 
434 1 0.000325917 -0.000314697 0.00220827 5e-05 0 0 -0.0588551 0 0 -5.1365e-09 
13 1 0.000424331 -0.000261447 0.00217893 5e-05 0 0 -0.0588551 0 0 -5.1365e-09 
337 1 -0.000436021 -0.00019868 0.00210792 5e-05 0 0 -0.0588551 0 0 -5.1365e-09 
355 1 -0.000418643 -0.000128167 0.00222763 5e-05 0 0 -0.0588551 0 0 -5.1365e-09 
400 1 -0.000286322 -0.000221584 0.00215629 5e-05 0 0 -0.0588551 0 0 -5.1365e-09 
429 1 -0.000342483 -0.000104194 0.00212969 5e-05 0 0 -0.0588551 0 0 -5.1365e-09 
160 1 -0.000305358 -0.000152204 0.00223832 5e-05 0 0 -0.0588551 0 0 -5.1365e-09 
309 1 -0.0001243 -0.000104787 0.00216351 5e-05 0 0 -0.0588551 0 0 -5.1365e-09 
343 1 -0.000217774 -0.000121449 0.0021313 5e-05 0 0 -0.0588551 0 0 -5.1365e-09 
534 1 -0.000174285 -0.000209209 0.00215226 5e-05 0 0 -0.0588551 0 0 -5.1365e-09 
271 1 -0.000176601 -0.000138696 0.0022526 5e-05 0 0 -0.0588551 0 0 -5.1365e-09 
20 1 1.30833e-05 -0.000109308 0.0021848 5e-05 0 0 -0.0588551 0 0 -5.1365e-09 
104 1 -7.53372e-05 -0.000192129 0.00221858 5e-05 0 0 -0.0588551 0 0 -5.1365e-09 
170 1 0.000172303 -0.00010705 0.00212738 5e-05 0 0 -0.0588551 0 0 -5.1365e-09 
293 1 9.17971e-05 -0.000166787 0.00213946 5e-05 0 0 -0.0588551 0 0 -5.1365e-09 
77 1 9.25161e-05 -8.1816e-05 0.00224195 5e-05 0 0 -0.0588551 0 0 -5.1365e-09 
78 1 0.000233403 -0.000191593 0.00221737 5e-05 0 0 -0.0588551 0 0 -5.1365e-09 
121 1 0.000356982 -0.000195995 0.00223113 5e-05 0 0 -0.0588551 0 0 -5.1365e-09 
50 1 0.000412621 -8.08128e-05 0.00210286 5e-05 0 0 -0.0588551 0 0 -5.1365e-09 
136 1 0.000396497 -7.70583e-05 0.00220526 5e-05 0 0 -0.0588551 0 0 -5.1365e-09 
387 1 -0.000446067 -4.5647e-05 0.00213429 5e-05 0 0 -0.0588551 0 0 -5.1365e-09 
363 1 -0.000354198 -1.25613e-05 0.0022059 5e-05 0 0 -0.0588551 0 0 -5.1365e-09 
142 1 -0.000200629 2.7537e-05 0.00213766 5e-05 0 0 -0.0588551 0 0 -5.1365e-09 
484 1 -0.000102459 -3.61808e-05 0.00223332 5e-05 0 0 -0.0588551 0 0 -5.1365e-09 
559 1 -1.96422e-06 -1.26234e-05 0.00216199 5e-05 0 0 -0.0588551 0 0 -5.1365e-09 
64 1 8.66317e-05 1.86175e-05 0.00222761 5e-05 0 0 -0.0588551 0 0 -5.1365e-09 
261 1 0.000215863 1.69465e-05 0.00214408 5e-05 0 0 -0.0588551 0 0 -5.1365e-09 
454 1 0.000102158 -3.10098e-05 0.00214111 5e-05 0 0 -0.0588551 0 0 -5.1365e-09 
524 1 0.00012995 7.34111e-05 0.00214442 5e-05 0 0 -0.0588551 0 0 -5.1365e-09 
82 1 0.000183142 7.21679e-05 0.00224927 5e-05 0 0 -0.0588551 0 0 -5.1365e-09 
17 1 0.000283389 -7.27164e-05 0.00217891 5e-05 0 0 -0.0588551 0 0 -5.1365e-09 
457 1 0.000340335 4.33825e-06 0.00223638 5e-05 0 0 -0.0588551 0 0 -5.1365e-09 
266 1 0.000421671 2.17076e-05 0.0021626 5e-05 0 0 -0.0588551 0 0 -5.1365e-09 
208 1 0.000445771 7.60356e-05 0.00225328 5e-05 0 0 -0.0588551 0 0 -5.1365e-09 
438 1 -0.000437073 0.000108936 0.00220559 5e-05 0 0 -0.0588551 0 0 -5.1365e-09 
311 1 -0.000318188 0.000222041 0.00217116 5e-05 0 0 -0.0588551 0 0 -5.1365e-09 
383 1 -0.000256552 0.000124464 0.00218251 5e-05 0 0 -0.0588551 0 0 -5.1365e-09 
75 1 -0.000331226 8.0141e-05 0.00225346 5e-05 0 0 -0.0588551 0 0 -5.1365e-09 
213 1 -0.000174918 0.00014826 0.00212181 5e-05 0 0 -0.0588551 0 0 -5.1365e-09 
428 1 -8.28775e-05 7.82915e-05 0.00216878 5e-05 0 0 -0.0588551 0 0 -5.1365e-09 
347 1 -0.000150882 0.000121789 0.00223857 5e-05 0 0 -0.0588551 0 0 -5.1365e-09 
163 1 3.45217e-05 0.000205502 0.00219419 5e-05 0 0 -0.0588551 0 0 -5.1365e-09 
259 1 3.31472e-05 0.000105245 0.00217947 5e-05 0 0 -0.0588551 0 0 -5.1365e-09 
481 1 -5.52644e-05 0.000170875 0.00222201 5e-05 0 0 -0.0588551 0 0 -5.1365e-09 
66 1 0.000157386 0.000193062 0.00212191 5e-05 0 0 -0.0588551 0 0 -5.1365e-09 
570 1 0.000124957 0.000158618 0.00221922 5e-05 0 0 -0.0588551 0 0 -5.1365e-09 
346 1 0.00032862 0.000124639 0.00213551 5e-05 0 0 -0.0588551 0 0 -5.1365e-09 
371 1 0.000274063 0.000179563 0.0022327 5e-05 0 0 -0.0588551 0 0 -5.1365e-09 
175 1 0.00042977 0.00014862 0.00218614 5e-05 0 0 -0.0588551 0 0 -5.1365e-09 
123 1 -0.000409038 0.000292249 0.00215257 5e-05 0 0 -0.0588551 0 0 -5.1365e-09 
61 1 -0.000309077 0.000346278 0.00222607 5e-05 0 0 -0.0588551 0 0 -5.1365e-09 
87 1 -0.000116717 0.000337532 0.00222813 5e-05 0 0 -0.0588551 0 0 -5.1365e-09 
388 1 -0.000210604 0.000371563 0.00219002 5e-05 0 0 -0.0588551 0 0 -5.1365e-09 
507 1 -0.000135881 0.000243759 0.00218629 5e-05 0 0 -0.0588551 0 0 -5.1365e-09 
126 1 -0.000219952 0.000263814 0.00224247 5e-05 0 0 -0.0588551 0 0 -5.1365e-09 
33 1 -6.12653e-05 0.000314857 0.00212831 5e-05 0 0 -0.0588551 0 0 -5.1365e-09 
535 1 6.29676e-05 0.000295641 0.00215996 5e-05 0 0 -0.0588551 0 0 -5.1365e-09 
565 1 -4.10977e-05 0.000271607 0.00222384 5e-05 0 0 -0.0588551 0 0 -5.1365e-09 
133 1 6.24957e-05 0.000364664 0.00223775 5e-05 0 0 -0.0588551 0 0 -5.1365e-09 
140 1 0.000160011 0.000310995 0.002209 5e-05 0 0 -0.0588551 0 0 -5.1365e-09 
71 1 0.000355586 0.000341638 0.00222603 5e-05 0 0 -0.0588551 0 0 -5.1365e-09 
72 1 0.000284183 0.000259582 0.00211639 5e-05 0 0 -0.0588551 0 0 -5.1365e-09 
444 1 0.0003532 0.000240785 0.00219715 5e-05 0 0 -0.0588551 0 0 -5.1365e-09 
244 1 0.000432576 0.000310635 0.00215901 5e-05 0 0 -0.0588551 0 0 -5.1365e-09 
320 1 -0.000391598 0.000418094 0.00222224 5e-05 0 0 -0.0588551 0 0 -5.1365e-09 
393 1 -0.000407839 0.000445635 0.00211238 5e-05 0 0 -0.0588551 0 0 -5.1365e-09 
389 1 -0.000313237 0.000431952 0.00214547 5e-05 0 0 -0.0588551 0 0 -5.1365e-09 
540 1 -0.00016318 0.00044159 0.00212633 5e-05 0 0 -0.0588551 0 0 -5.1365e-09 
88 1 3.31667e-05 0.000433499 0.00213738 5e-05 0 0 -0.0588551 0 0 -5.1365e-09 
486 1 -1.28258e-05 0.000435944 0.00223444 5e-05 0 0 -0.0588551 0 0 -5.1365e-09 
494 1 0.000136754 0.000424633 0.00213466 5e-05 0 0 -0.0588551 0 0 -5.1365e-09 
240 1 0.000150916 0.000443204 0.0022528 5e-05 0 0 -0.0588551 0 0 -5.1365e-09 
7 1 0.00023225 0.000422733 0.00219381 5e-05 0 0 -0.0588551 0 0 -5.1365e-09 
265 1 0.000372074 0.000447249 0.00223104 5e-05 0 0 -0.0588551 0 0 -5.1365e-09 
391 1 0.000374809 0.000410114 0.00211554 5e-05 0 0 -0.0588551 0 0 -5.1365e-09 
516 1 -0.000438296 -0.000438031 0.00234195 5e-05 0 0 -0.0588551 0 0 -5.1365e-09 
283 1 -0.000329053 -0.000387518 0.00231246 5e-05 0 0 -0.0588551 0 0 -5.1365e-09 
85 1 -0.000272351 -0.00039852 0.00239552 5e-05 0 0 -0.0588551 0 0 -5.1365e-09 
375 1 -0.000116998 -0.000393469 0.00229289 5e-05 0 0 -0.0588551 0 0 -5.1365e-09 
556 1 -0.00019078 -0.000442374 0.00234438 5e-05 0 0 -0.0588551 0 0 -5.1365e-09 
14 1 1.53269e-05 -0.000400663 0.00237336 5e-05 0 0 -0.0588551 0 0 -5.1365e-09 
373 1 3.27604e-05 -0.000396088 0.00226501 5e-05 0 0 -0.0588551 0 0 -5.1365e-09 
102 1 0.000211556 -0.000385375 0.00233217 5e-05 0 0 -0.0588551 0 0 -5.1365e-09 
513 1 0.000128491 -0.000445352 0.00230022 5e-05 0 0 -0.0588551 0 0 -5.1365e-09 
398 1 0.000144022 -0.000430114 0.00239891 5e-05 0 0 -0.0588551 0 0 -5.1365e-09 
255 1 0.000285271 -0.000443682 0.00236672 5e-05 0 0 -0.0588551 0 0 -5.1365e-09 
316 1 0.000268672 -0.000425422 0.00225467 5e-05 0 0 -0.0588551 0 0 -5.1365e-09 
166 1 0.00040683 -0.000408101 0.00237247 5e-05 0 0 -0.0588551 0 0 -5.1365e-09 
237 1 -0.000422166 -0.000343901 0.00238266 5e-05 0 0 -0.0588551 0 0 -5.1365e-09 
514 1 -0.00043466 -0.000338849 0.00228179 5e-05 0 0 -0.0588551 0 0 -5.1365e-09 
284 1 -0.000237838 -0.000347358 0.00227531 5e-05 0 0 -0.0588551 0 0 -5.1365e-09 
295 1 -0.000370515 -0.000242576 0.00234116 5e-05 0 0 -0.0588551 0 0 -5.1365e-09 
368 1 -0.000245926 -0.000273932 0.00235606 5e-05 0 0 -0.0588551 0 0 -5.1365e-09 
313 1 -0.000130496 -0.000246088 0.00232094 5e-05 0 0 -0.0588551 0 0 -5.1365e-09 
41 1 -1.42964e-05 -0.000279941 0.00234796 5e-05 0 0 -0.0588551 0 0 -5.1365e-09 
203 1 3.53251e-05 -0.000291608 0.00226083 5e-05 0 0 -0.0588551 0 0 -5.1365e-09 
114 1 0.000222987 -0.000264116 0.00232632 5e-05 0 0 -0.0588551 0 0 -5.1365e-09 
361 1 0.000127549 -0.000290947 0.00236976 5e-05 0 0 -0.0588551 0 0 -5.1365e-09 
511 1 0.00013546 -0.000328557 0.0022725 5e-05 0 0 -0.0588551 0 0 -5.1365e-09 
35 1 0.00038363 -0.000328853 0.00229889 5e-05 0 0 -0.0588551 0 0 -5.1365e-09 
274 1 0.000369058 -0.000245491 0.00235274 5e-05 0 0 -0.0588551 0 0 -5.1365e-09 
165 1 -0.00040805 -9.14455e-05 0.00239825 5e-05 0 0 -0.0588551 0 0 -5.1365e-09 
397 1 -0.000258885 -7.72879e-05 0.00234627 5e-05 0 0 -0.0588551 0 0 -5.1365e-09 
246 1 -8.85427e-05 -0.00013792 0.00230982 5e-05 0 0 -0.0588551 0 0 -5.1365e-09 
544 1 -0.000225809 -0.000171892 0.00234129 5e-05 0 0 -0.0588551 0 0 -5.1365e-09 
279 1 3.47365e-05 -0.00018302 0.00230653 5e-05 0 0 -0.0588551 0 0 -5.1365e-09 
510 1 6.31227e-05 -9.60885e-05 0.00236401 5e-05 0 0 -0.0588551 0 0 -5.1365e-09 
155 1 0.000144335 -0.00016267 0.00232876 5e-05 0 0 -0.0588551 0 0 -5.1365e-09 
330 1 0.000263574 -0.000114062 0.00228979 5e-05 0 0 -0.0588551 0 0 -5.1365e-09 
340 1 0.000346515 -0.0001162 0.00235071 5e-05 0 0 -0.0588551 0 0 -5.1365e-09 
448 1 0.00028362 -0.00019569 0.0023684 5e-05 0 0 -0.0588551 0 0 -5.1365e-09 
467 1 0.000237456 -8.10337e-05 0.00238932 5e-05 0 0 -0.0588551 0 0 -5.1365e-09 
447 1 0.000442486 -0.000132684 0.00230893 5e-05 0 0 -0.0588551 0 0 -5.1365e-09 
45 1 -0.000403464 -1.74941e-05 0.00229974 5e-05 0 0 -0.0588551 0 0 -5.1365e-09 
204 1 -0.000231868 -9.34408e-06 0.00227742 5e-05 0 0 -0.0588551 0 0 -5.1365e-09 
32 1 -0.00010055 5.28332e-05 0.00229155 5e-05 0 0 -0.0588551 0 0 -5.1365e-09 
360 1 -0.000115371 -3.54011e-05 0.00233664 5e-05 0 0 -0.0588551 0 0 -5.1365e-09 
54 1 1.66638e-05 6.87801e-05 0.00231081 5e-05 0 0 -0.0588551 0 0 -5.1365e-09 
440 1 -1.26775e-05 -7.02695e-05 0.00230372 5e-05 0 0 -0.0588551 0 0 -5.1365e-09 
53 1 1.40413e-05 -7.49236e-06 0.00239937 5e-05 0 0 -0.0588551 0 0 -5.1365e-09 
69 1 0.00015327 3.9901e-06 0.00238507 5e-05 0 0 -0.0588551 0 0 -5.1365e-09 
504 1 0.000187658 -3.16553e-05 0.0022921 5e-05 0 0 -0.0588551 0 0 -5.1365e-09 
34 1 0.000306778 1.35669e-05 0.00234165 5e-05 0 0 -0.0588551 0 0 -5.1365e-09 
479 1 0.000407571 4.84346e-05 0.00236299 5e-05 0 0 -0.0588551 0 0 -5.1365e-09 
351 1 -0.000448672 0.000169691 0.00232083 5e-05 0 0 -0.0588551 0 0 -5.1365e-09 
6 1 -0.000317241 0.00013215 0.00236761 5e-05 0 0 -0.0588551 0 0 -5.1365e-09 
324 1 -0.000247746 0.00013042 0.00228626 5e-05 0 0 -0.0588551 0 0 -5.1365e-09 
421 1 -0.000360136 0.000196284 0.00227519 5e-05 0 0 -0.0588551 0 0 -5.1365e-09 
431 1 -0.000138744 0.000132328 0.00236435 5e-05 0 0 -0.0588551 0 0 -5.1365e-09 
214 1 -0.000230018 9.22873e-05 0.00239677 5e-05 0 0 -0.0588551 0 0 -5.1365e-09 
231 1 7.08161e-05 0.00020652 0.00230319 5e-05 0 0 -0.0588551 0 0 -5.1365e-09 
543 1 -2.64672e-05 0.00016511 0.0023221 5e-05 0 0 -0.0588551 0 0 -5.1365e-09 
437 1 6.86076e-05 8.79445e-05 0.00240617 5e-05 0 0 -0.0588551 0 0 -5.1365e-09 
272 1 0.000166189 0.000135007 0.0023781 5e-05 0 0 -0.0588551 0 0 -5.1365e-09 
300 1 0.000186959 0.000224784 0.00226254 5e-05 0 0 -0.0588551 0 0 -5.1365e-09 
135 1 0.000357955 0.000151482 0.00228533 5e-05 0 0 -0.0588551 0 0 -5.1365e-09 
547 1 0.000257578 0.000109538 0.00233001 5e-05 0 0 -0.0588551 0 0 -5.1365e-09 
189 1 0.0004453 0.000154521 0.00236025 5e-05 0 0 -0.0588551 0 0 -5.1365e-09 
226 1 -0.000426651 0.000284821 0.00231621 5e-05 0 0 -0.0588551 0 0 -5.1365e-09 
47 1 -0.000336745 0.000325104 0.00234581 5e-05 0 0 -0.0588551 0 0 -5.1365e-09 
116 1 -0.000187698 0.000361992 0.00232396 5e-05 0 0 -0.0588551 0 0 -5.1365e-09 
117 1 -9.83971e-05 0.000239781 0.00232489 5e-05 0 0 -0.0588551 0 0 -5.1365e-09 
129 1 -0.000205197 0.000253883 0.0023411 5e-05 0 0 -0.0588551 0 0 -5.1365e-09 
546 1 -0.000142838 0.000315885 0.00240468 5e-05 0 0 -0.0588551 0 0 -5.1365e-09 
56 1 -2.63377e-05 0.000341584 0.00232329 5e-05 0 0 -0.0588551 0 0 -5.1365e-09 
354 1 2.06014e-05 0.000247878 0.00240356 5e-05 0 0 -0.0588551 0 0 -5.1365e-09 
106 1 0.00022594 0.000365263 0.00229688 5e-05 0 0 -0.0588551 0 0 -5.1365e-09 
436 1 8.45074e-05 0.000315347 0.00236112 5e-05 0 0 -0.0588551 0 0 -5.1365e-09 
120 1 0.000309946 0.000262571 0.0023554 5e-05 0 0 -0.0588551 0 0 -5.1365e-09 
566 1 0.000275378 0.000282497 0.00225553 5e-05 0 0 -0.0588551 0 0 -5.1365e-09 
44 1 0.000448579 0.000270717 0.00226487 5e-05 0 0 -0.0588551 0 0 -5.1365e-09 
419 1 0.000444063 0.000365203 0.00229746 5e-05 0 0 -0.0588551 0 0 -5.1365e-09 
520 1 0.000449233 0.000253469 0.00237451 5e-05 0 0 -0.0588551 0 0 -5.1365e-09 
224 1 -0.000414029 0.000407212 0.00233404 5e-05 0 0 -0.0588551 0 0 -5.1365e-09 
408 1 -0.000274741 0.000425479 0.0023408 5e-05 0 0 -0.0588551 0 0 -5.1365e-09 
403 1 -0.000111357 0.000423989 0.00230154 5e-05 0 0 -0.0588551 0 0 -5.1365e-09 
505 1 -0.000215062 0.000449511 0.00226106 5e-05 0 0 -0.0588551 0 0 -5.1365e-09 
571 1 -3.90491e-07 0.000437022 0.0023516 5e-05 0 0 -0.0588551 0 0 -5.1365e-09 
79 1 0.00011581 0.000412271 0.00235707 5e-05 0 0 -0.0588551 0 0 -5.1365e-09 
187 1 0.000364933 0.000423098 0.00233814 5e-05 0 0 -0.0588551 0 0 -5.1365e-09 
517 1 0.000266344 0.000447255 0.0023428 5e-05 0 0 -0.0588551 0 0 -5.1365e-09 
416 1 -0.00037612 -0.000447902 0.00242906 5e-05 0 0 -0.0588551 0 0 -5.1365e-09 
533 1 -0.000296807 -0.000433619 0.00249482 5e-05 0 0 -0.0588551 0 0 -5.1365e-09 
200 1 -0.000114619 -0.000401254 0.00244573 5e-05 0 0 -0.0588551 0 0 -5.1365e-09 
341 1 7.03622e-05 -0.000423267 0.0024812 5e-05 0 0 -0.0588551 0 0 -5.1365e-09 
452 1 -3.09042e-05 -0.000406188 0.0025222 5e-05 0 0 -0.0588551 0 0 -5.1365e-09 
356 1 0.000168297 -0.000425941 0.00252886 5e-05 0 0 -0.0588551 0 0 -5.1365e-09 
278 1 0.000274325 -0.000419756 0.00248405 5e-05 0 0 -0.0588551 0 0 -5.1365e-09 
518 1 0.000449192 -0.000424576 0.0024667 5e-05 0 0 -0.0588551 0 0 -5.1365e-09 
396 1 -0.000447098 -0.000372751 0.00249514 5e-05 0 0 -0.0588551 0 0 -5.1365e-09 
430 1 -0.0004459 -0.000247986 0.00242126 5e-05 0 0 -0.0588551 0 0 -5.1365e-09 
357 1 -0.000435311 -0.00027505 0.00255891 5e-05 0 0 -0.0588551 0 0 -5.1365e-09 
18 1 -0.000279422 -0.000245303 0.00252132 5e-05 0 0 -0.0588551 0 0 -5.1365e-09 
336 1 -0.000338451 -0.000341157 0.0024977 5e-05 0 0 -0.0588551 0 0 -5.1365e-09 
286 1 -0.000217491 -0.000367454 0.00252457 5e-05 0 0 -0.0588551 0 0 -5.1365e-09 
306 1 -0.000129544 -0.000248105 0.00242368 5e-05 0 0 -0.0588551 0 0 -5.1365e-09 
377 1 -0.000186787 -0.000334498 0.00242106 5e-05 0 0 -0.0588551 0 0 -5.1365e-09 
257 1 -5.82676e-05 -0.000304268 0.00248883 5e-05 0 0 -0.0588551 0 0 -5.1365e-09 
478 1 3.52046e-05 -0.000316885 0.00243817 5e-05 0 0 -0.0588551 0 0 -5.1365e-09 
530 1 7.48315e-05 -0.000307715 0.00255043 5e-05 0 0 -0.0588551 0 0 -5.1365e-09 
144 1 0.000157534 -0.000330033 0.00246418 5e-05 0 0 -0.0588551 0 0 -5.1365e-09 
456 1 0.000147186 -0.000236614 0.00254665 5e-05 0 0 -0.0588551 0 0 -5.1365e-09 
150 1 0.00036429 -0.000373644 0.00248712 5e-05 0 0 -0.0588551 0 0 -5.1365e-09 
386 1 0.000257318 -0.000256966 0.00250417 5e-05 0 0 -0.0588551 0 0 -5.1365e-09 
496 1 0.000288136 -0.000305641 0.00241714 5e-05 0 0 -0.0588551 0 0 -5.1365e-09 
93 1 0.000436645 -0.00031087 0.00252713 5e-05 0 0 -0.0588551 0 0 -5.1365e-09 
258 1 0.000440036 -0.000317183 0.00242637 5e-05 0 0 -0.0588551 0 0 -5.1365e-09 
83 1 -0.000400737 -0.000187591 0.00248876 5e-05 0 0 -0.0588551 0 0 -5.1365e-09 
191 1 -0.000318568 -0.000178849 0.00241268 5e-05 0 0 -0.0588551 0 0 -5.1365e-09 
263 1 -0.000264718 -0.000118748 0.00252963 5e-05 0 0 -0.0588551 0 0 -5.1365e-09 
63 1 -0.000204389 -0.000174206 0.0024395 5e-05 0 0 -0.0588551 0 0 -5.1365e-09 
154 1 -0.00014673 -8.93019e-05 0.00242611 5e-05 0 0 -0.0588551 0 0 -5.1365e-09 
262 1 -0.000153759 -0.000219659 0.00252103 5e-05 0 0 -0.0588551 0 0 -5.1365e-09 
460 1 -8.03292e-05 -9.21532e-05 0.00250518 5e-05 0 0 -0.0588551 0 0 -5.1365e-09 
127 1 1.93245e-05 -0.000212935 0.00253009 5e-05 0 0 -0.0588551 0 0 -5.1365e-09 
247 1 -2.27964e-05 -0.00013833 0.00240977 5e-05 0 0 -0.0588551 0 0 -5.1365e-09 
201 1 2.80777e-05 -9.87543e-05 0.00256058 5e-05 0 0 -0.0588551 0 0 -5.1365e-09 
149 1 0.000183425 -0.000176287 0.00247121 5e-05 0 0 -0.0588551 0 0 -5.1365e-09 
319 1 8.92362e-05 -0.000206457 0.00240805 5e-05 0 0 -0.0588551 0 0 -5.1365e-09 
410 1 0.00011453 -9.58442e-05 0.00246921 5e-05 0 0 -0.0588551 0 0 -5.1365e-09 
314 1 0.000184738 -0.00010411 0.00255054 5e-05 0 0 -0.0588551 0 0 -5.1365e-09 
215 1 0.000374176 -0.000226203 0.0025261 5e-05 0 0 -0.0588551 0 0 -5.1365e-09 