ITEM: TIMESTEP
22000
ITEM: NUMBER OF ATOMS
559
ITEM: BOX BOUNDS ff ff ff
-0.001 0.001
-0.001 0.001
0 0.004
ITEM: ATOMS id type x y z radius vx vy vz fx fy fz 
182 1 -0.000166856 -0.000204115 0.000128044 5e-05 -0.120117 0.0318521 -0.0570532 0 0 -5.1365e-09 
468 1 -9.01e-05 -0.000117022 1.13513e-05 5e-05 0.0654423 -0.0177256 -0.188017 0 0 -5.1365e-09 
322 1 0.000216235 -0.000130069 0.000117542 5e-05 -0.00295672 0.0621288 -0.028131 0 0 -5.1365e-09 
250 1 0.000112512 -0.000218902 4.04226e-06 5e-05 0.0448672 -0.0113046 -0.163288 -3.62266e-06 4.60742e-06 3.50048e-06 
276 1 -0.000187242 0.000564472 0.00195555 5e-05 0.00595015 0.00262975 0.00118039 0 0 -5.1365e-09 
243 1 -0.000225975 -7.32144e-05 4.98524e-05 5e-05 0.0190362 -0.0498024 -0.13164 0 0 -5.1365e-09 
487 1 0.000347927 0.000433307 0.00192891 5e-05 0.00901034 -0.0207413 -0.0236907 0 0 -5.1365e-09 
471 1 -0.000162778 1.73138e-05 4.84975e-05 5e-05 0.0405104 -0.00617079 -0.164152 0 0 -5.1365e-09 
542 1 3.42372e-05 0.000445174 0.00193665 5e-05 -0.018838 0.0126578 -0.0349759 0 0 -5.1365e-09 
433 1 0.000308478 0.000301544 0.00183136 5e-05 -0.00991966 -0.00520733 -0.0260645 0 0 -5.1365e-09 
199 1 9.33926e-05 4.37101e-05 2.08836e-05 5e-05 -0.0328146 0.0596518 -0.167825 0 0 -5.1365e-09 
501 1 -0.000466658 0.000330169 0.0018591 5e-05 -0.0481898 -0.00916574 -0.0130951 0 0 -5.1365e-09 
374 1 -0.000564378 0.000100201 0.00184969 5e-05 -0.0229235 -0.0592798 -0.011481 0 0 -5.1365e-09 
551 1 1.41878e-05 -0.000259375 0.000185271 5e-05 -0.0214168 0.0214683 -0.156499 0 0 -5.1365e-09 
73 1 0.000133975 -0.000233693 0.000172052 5e-05 -0.0155696 0.0117007 -0.162743 0 0 -5.1365e-09 
285 1 -4.60962e-05 -0.000160879 0.00019216 5e-05 0.0150778 -0.00555768 -0.0634204 0 0 -5.1365e-09 
328 1 5.15517e-05 -0.000175687 0.00012804 5e-05 0.0144698 -0.0827298 -0.166544 0 0 -5.1365e-09 
183 1 -3.27793e-05 -5.84026e-05 0.000148019 5e-05 -0.0392864 0.0868784 -0.126892 0 0 -5.1365e-09 
508 1 0.000100072 -9.46897e-06 0.000106813 5e-05 0.033687 -0.0328388 -0.2423 0 0 -5.1365e-09 
132 1 0.00025962 -3.07123e-05 0.000132809 5e-05 -0.0160884 -0.025744 -0.163954 0 0 -5.1365e-09 
311 1 -0.000103104 9.01389e-05 0.000114821 5e-05 -0.0378329 -0.0568478 -0.161185 0 0 -5.1365e-09 
157 1 -6.1943e-05 0.000186427 9.34095e-05 5e-05 -0.0335165 -8.37886e-05 -0.152639 0 0 -5.1365e-09 
186 1 4.52927e-05 0.000124381 5.58218e-05 5e-05 -0.0304472 -0.0348491 -0.178786 0 0 -5.1365e-09 
57 1 0.000129595 0.000144757 0.000188247 5e-05 0.0192692 -0.0855392 -0.150453 0 0 -5.1365e-09 
422 1 -0.000106455 0.000216315 0.000248981 5e-05 0.0319971 -0.110556 0.00733615 0 0 -5.1365e-09 
529 1 8.29998e-05 0.000240269 0.000152378 5e-05 -0.0422753 -0.0344502 -0.0374823 0 0 -5.1365e-09 
23 1 -9.55987e-05 -0.000276487 0.000302567 5e-05 0.00733052 0.0320445 -0.136702 0 0 -5.1365e-09 
379 1 -0.000114471 -0.00022157 0.000414687 5e-05 0.101683 0.0662175 -0.0577639 0 0 -5.1365e-09 
89 1 4.37856e-05 -0.000222706 0.000276323 5e-05 0.0500385 0.0705651 -0.063087 0 0 -5.1365e-09 
558 1 0.000103407 -0.000288978 0.000361492 5e-05 -0.0524736 0.0421957 -0.11614 0 0 -5.1365e-09 
367 1 -0.000195181 -9.27275e-05 0.000255391 5e-05 0.0714742 -0.0059632 -0.104812 0 0 -5.1365e-09 
239 1 -0.000280605 -0.000133542 0.000385343 5e-05 0.0626089 0.01651 -0.0716498 0 0 -5.1365e-09 
453 1 -0.00012689 -0.000165735 0.000275552 5e-05 0.00163331 -0.00969487 -0.150419 0 0 -5.1365e-09 
321 1 -0.000100191 -8.20852e-05 0.000385142 5e-05 0.0341689 0.00401258 -0.121375 0 0 -5.1365e-09 
541 1 6.12207e-05 -0.000153649 0.000369698 5e-05 0.0854597 0.0440211 -0.0656432 0 0 -5.1365e-09 
222 1 0.000210738 -6.39413e-05 0.000321694 5e-05 0.0296989 0.0236369 -0.137745 0 0 -5.1365e-09 
482 1 -0.000233335 6.28226e-05 0.00034675 5e-05 0.0298768 -0.0224512 -0.163913 6.21436e-08 -3.58045e-07 -1.13772e-06 
509 1 -0.000211611 1.08719e-05 0.000230888 5e-05 0.033664 0.00851056 -0.165693 0 0 -5.1365e-09 
49 1 -0.000125051 1.37559e-05 0.000323031 5e-05 -0.0161757 0.0435033 -0.152519 0 0 -5.1365e-09 
251 1 -2.45426e-06 -7.53363e-05 0.000338633 5e-05 0.0849188 0.0370043 -0.104362 0 0 -5.1365e-09 
485 1 3.48287e-05 1.44395e-05 0.000239088 5e-05 -0.000941952 0.0430144 -0.163478 0 0 -5.1365e-09 
24 1 0.0001205 -4.17628e-05 0.000229872 5e-05 -0.0455694 0.0245703 -0.136874 0 0 -5.1365e-09 
299 1 9.02434e-05 -3.88691e-05 0.000349219 5e-05 -0.039088 0.029009 -0.0924675 0 0 -5.1365e-09 
37 1 0.000152752 5.59565e-05 0.000240285 5e-05 -0.0688797 0.0388804 -0.130774 0 0 -5.1365e-09 
493 1 0.000271911 5.82724e-05 0.000300113 5e-05 -0.0601295 -0.0134605 -0.100476 0 0 -5.1365e-09 
128 1 -0.00017813 0.000105539 0.000229084 5e-05 -0.0662372 -0.0217881 -0.207543 0 0 -5.1365e-09 
86 1 -0.000106492 0.000118685 0.000320288 5e-05 0.0056436 -0.0333383 -0.109847 0 0 -5.1365e-09 
115 1 7.0283e-05 0.000210953 0.000287103 5e-05 -0.0315274 -0.0135601 -0.165763 0 0 -5.1365e-09 
459 1 0.000184483 0.000206594 0.000325568 5e-05 -0.0433705 0.0487037 -0.178076 0 0 -5.1365e-09 
90 1 0.000148507 0.000268196 0.000402792 5e-05 -0.0181821 -0.0139937 -0.0649185 0 0 -5.1365e-09 
528 1 -4.69912e-05 -0.00026008 0.000489923 5e-05 -0.0338193 0.0522204 -0.120866 0 0 -5.1365e-09 
381 1 0.000149841 -0.000200412 0.000479043 5e-05 -0.0245386 0.0266437 -0.0958344 0 0 -5.1365e-09 
25 1 4.69522e-05 -0.000182687 0.00049008 5e-05 -0.0700848 0.013322 -0.152087 0 0 -5.1365e-09 
13 1 0.000224953 -5.62614e-05 0.000434198 5e-05 -0.0408737 0.0490268 -0.151639 0 0 -5.1365e-09 
383 1 -0.000307486 -4.58947e-05 0.000430646 5e-05 0.0380655 0.0634633 -0.128108 0 0 -5.1365e-09 
123 1 -0.000353456 6.33149e-05 0.000495623 5e-05 0.0248626 -0.0156697 -0.129066 0 0 -5.1365e-09 
126 1 -0.000231085 1.27862e-05 0.000507481 5e-05 0.0450605 -0.00216068 -0.163899 0 0 -5.1365e-09 
463 1 -0.000192948 -4.75349e-05 0.00040322 5e-05 0.0137136 0.0696538 -0.102012 0 0 -5.1365e-09 
434 1 0.000103963 7.13646e-05 0.000407803 5e-05 -0.00011255 -0.0491761 -0.18137 0 0 -5.1365e-09 
350 1 0.000297285 5.22885e-05 0.00040224 5e-05 -0.04485 0.0055074 -0.117186 0 0 -5.1365e-09 
10 1 -0.000225371 0.000196972 0.000400414 5e-05 0.0550579 -0.0456852 -0.108429 0 0 -5.1365e-09 
388 1 -0.000193511 8.70666e-05 0.000435149 5e-05 0.0314635 -0.0217413 -0.165061 -6.21436e-08 3.58045e-07 1.12745e-06 
475 1 3.84545e-05 0.000143867 0.00038514 5e-05 -0.0626751 0.00860415 -0.153706 0 0 -5.1365e-09 
91 1 0.000208621 0.000142878 0.000467384 5e-05 0.0165799 -0.00690505 -0.136288 0 0 -5.1365e-09 
108 1 -9.42247e-05 0.000232219 0.000462367 5e-05 0.0311569 -0.0112261 -0.169171 0 0 -5.1365e-09 
60 1 4.05396e-06 0.000228526 0.00044293 5e-05 -0.062639 -0.00363246 -0.101395 0 0 -5.1365e-09 
401 1 -0.000109779 -0.000267974 0.000657959 5e-05 0.0173821 0.0132279 -0.124838 0 0 -5.1365e-09 
489 1 -9.01525e-05 -0.000344745 0.000574614 5e-05 -0.00607749 -0.056952 -0.130479 0 0 -5.1365e-09 
196 1 4.67701e-05 -0.000247191 0.000688296 5e-05 -0.0405843 0.0558743 -0.0924495 0 0 -5.1365e-09 
402 1 0.000156684 -0.000268952 0.000585765 5e-05 -0.0500799 -0.0118093 -0.122023 0 0 -5.1365e-09 
153 1 -0.00011487 -0.000163593 0.000548335 5e-05 -0.0214931 0.0419998 -0.162366 0 0 -5.1365e-09 
449 1 -9.33035e-05 -0.000113559 0.000634307 5e-05 0.0292641 0.0199267 -0.120566 0 0 -5.1365e-09 
92 1 -3.72035e-06 -0.000170152 0.000594993 5e-05 0.0502014 -0.021053 -0.155785 0 0 -5.1365e-09 
141 1 0.000217126 -0.000159591 0.000634738 5e-05 0.0104074 0.0365747 -0.156404 0 0 -5.1365e-09 
448 1 0.000117458 -0.000128835 0.000680235 5e-05 -0.0464589 0.0209797 -0.119094 0 0 -5.1365e-09 
331 1 0.000262237 -0.000173561 0.000543847 5e-05 -0.0320464 0.0191422 -0.135414 0 0 -5.1365e-09 
136 1 0.000348423 -6.51964e-05 0.000562682 5e-05 -0.00841428 0.0356896 -0.128118 0 0 -5.1365e-09 
121 1 0.000299259 -0.000202451 0.000672873 5e-05 -0.0433306 -0.00283097 -0.115214 0 0 -5.1365e-09 
363 1 -0.000264604 -4.30884e-05 0.000609595 5e-05 0.0400587 0.023692 -0.127031 0 0 -5.1365e-09 
61 1 -0.000371824 -3.80226e-05 0.000571854 5e-05 0.0571178 0.0143219 -0.0943441 0 0 -5.1365e-09 
30 1 -0.000140991 -2.16274e-05 0.000541522 5e-05 0.0417488 0.00517168 -0.158481 0 0 -5.1365e-09 
564 1 -1.80338e-05 -5.50041e-05 0.000552523 5e-05 0.0615141 -0.0268795 -0.156248 0 0 -5.1365e-09 
78 1 0.000108777 -3.04544e-05 0.000520068 5e-05 -0.024033 0.0301318 -0.169643 0 0 -5.1365e-09 
549 1 0.000130024 6.53957e-06 0.000636006 5e-05 0.0305012 0.0373403 -0.152419 0 0 -5.1365e-09 
17 1 0.000214015 1.5995e-05 0.000506977 5e-05 -0.0261722 0.0222732 -0.177867 0 0 -5.1365e-09 
261 1 0.000262936 5.51204e-05 0.000663211 5e-05 -0.0453841 0.030246 -0.134452 0 0 -5.1365e-09 
457 1 0.000336608 4.5892e-05 0.000568203 5e-05 -0.0444685 0.0341635 -0.135015 0 0 -5.1365e-09 
274 1 0.000327775 -5.8487e-05 0.000663706 5e-05 -0.0158298 0.0198638 -0.135229 0 0 -5.1365e-09 
393 1 -0.000300424 0.000114794 0.000574515 5e-05 0.0294298 -0.0251539 -0.140006 0 0 -5.1365e-09 
47 1 -0.000253448 6.05493e-05 0.000670984 5e-05 0.0459918 -0.0449156 -0.130305 0 0 -5.1365e-09 
320 1 -0.000307635 0.000206768 0.0006931 5e-05 0.00582546 -0.0326693 -0.106938 0 0 -5.1365e-09 
87 1 -0.000125522 0.000218551 0.000637513 5e-05 0.0319007 0.0106725 -0.103938 0 0 -5.1365e-09 
213 1 5.44593e-05 9.51462e-05 0.000641022 5e-05 0.0320426 -0.000573698 -0.110393 0 0 -5.1365e-09 
358 1 9.41136e-05 0.000100531 0.000511008 5e-05 -0.00113542 0.012848 -0.146146 0 0 -5.1365e-09 
454 1 0.000185828 0.000110447 0.000696336 5e-05 0.0117122 0.00758885 -0.112653 0 0 -5.1365e-09 
50 1 0.000245075 0.000119976 0.000558392 5e-05 -0.0399445 0.0355148 -0.152323 0 0 -5.1365e-09 
497 1 0.000256148 0.000179898 0.000677291 5e-05 -0.0326078 -0.0281207 -0.127853 0 0 -5.1365e-09 
537 1 -0.000226299 0.000224999 0.000613954 5e-05 -0.0376098 -0.0153414 -0.150043 0 0 -5.1365e-09 
560 1 -0.000156362 0.000314089 0.000621058 5e-05 -0.0244313 -0.0147841 -0.136561 0 0 -5.1365e-09 
384 1 7.27744e-05 0.000309955 0.000525173 5e-05 0.0111065 -0.034838 -0.166346 0 0 -5.1365e-09 
441 1 0.000184549 0.000247499 0.000637721 5e-05 -0.0857727 -0.00872497 -0.096119 0 0 -5.1365e-09 
42 1 7.98487e-05 -0.000386806 0.000851711 5e-05 0.0148349 0.0488277 -0.0994252 0 0 -5.1365e-09 
473 1 -9.02806e-05 -0.000360126 0.00069334 5e-05 0.0293213 -0.00360881 -0.108125 0 0 -5.1365e-09 
168 1 -0.000150779 -0.000294917 0.000759465 5e-05 0.0184157 -0.0277956 -0.094999 0 0 -5.1365e-09 
281 1 -4.71503e-05 -0.000237542 0.000818268 5e-05 0.0874492 0.00494075 -0.101096 0 0 -5.1365e-09 
291 1 0.000258671 -0.000303495 0.000775581 5e-05 -0.00826705 0.0397712 -0.129538 0 0 -5.1365e-09 
387 1 -0.000371277 -0.000118257 0.000772774 5e-05 0.0465639 -0.0161368 -0.0771804 0 0 -5.1365e-09 
342 1 -0.000326732 -0.00022484 0.000831655 5e-05 0.0324615 -0.0156509 -0.130095 0 0 -5.1365e-09 
160 1 -0.000210666 -0.000211661 0.00074103 5e-05 0.0350306 -0.0235652 -0.141129 0 0 -5.1365e-09 
51 1 -0.000129107 -0.000160366 0.000830638 5e-05 0.0536173 0.00360564 -0.141471 0 0 -5.1365e-09 
305 1 -4.39618e-05 -9.15273e-05 0.000735266 5e-05 0.0134581 0.0350753 -0.0782128 0 0 -5.1365e-09 
538 1 0.000236971 -0.000177639 0.000817531 5e-05 -0.0478425 0.0212141 -0.129778 0 0 -5.1365e-09 
35 1 0.000345441 -0.000193373 0.000778661 5e-05 -0.0157571 0.00418844 -0.122697 0 0 -5.1365e-09 
447 1 0.000407772 -5.61725e-05 0.000837384 5e-05 -0.0166296 0.0321494 -0.101735 0 0 -5.1365e-09 
421 1 -0.000361674 2.43539e-05 0.000675362 5e-05 0.0263603 -0.0130323 -0.151923 0 0 -5.1365e-09 
75 1 -0.000262935 -8.42629e-05 0.000735503 5e-05 0.0631356 -0.0196673 -0.146561 0 0 -5.1365e-09 
6 1 -0.000314253 -2.50499e-05 0.000816117 5e-05 0.0249744 -0.0562683 -0.0962279 0 0 -5.1365e-09 
142 1 -0.000161282 1.16186e-06 0.000715972 5e-05 0.0289615 -0.0109281 -0.153379 0 0 -5.1365e-09 
507 1 3.61833e-05 -1.80802e-05 0.000759795 5e-05 0.0561152 -0.0364735 -0.143388 0 0 -5.1365e-09 
170 1 0.0002087 -3.65005e-05 0.000697781 5e-05 -0.022811 0.00170659 -0.161912 0 0 -5.1365e-09 
340 1 0.0002995 1.90709e-05 0.000750487 5e-05 -0.0406654 0.0109062 -0.147267 0 0 -5.1365e-09 
226 1 -0.000387744 9.78102e-05 0.000855445 5e-05 0.0371212 -0.0198187 -0.0897861 0 0 -5.1365e-09 
389 1 -0.000182491 0.000214231 0.00076728 5e-05 0.0757896 -0.0206006 -0.11552 0 0 -5.1365e-09 
95 1 -0.000267657 8.42348e-05 0.00083656 5e-05 0.0335793 -0.0210163 -0.119149 0 0 -5.1365e-09 
324 1 -0.000197085 9.55205e-05 0.000761205 5e-05 0.062222 -0.0382347 -0.126365 0 0 -5.1365e-09 
256 1 0.000112777 0.000246204 0.000815315 5e-05 -0.0478942 0.0332841 -0.124284 0 0 -5.1365e-09 
287 1 0.000280801 0.000117054 0.000780562 5e-05 -0.0264145 0.0122707 -0.113094 0 0 -5.1365e-09 
346 1 0.000265409 0.000213906 0.000816673 5e-05 -0.0301393 0.0177795 -0.136546 0 0 -5.1365e-09 
84 1 0.00036853 0.000179655 0.0008317 5e-05 -0.0292768 0.0271827 -0.116949 0 0 -5.1365e-09 
224 1 -0.000345889 0.000232183 0.000815818 5e-05 0.0267821 -0.0156023 -0.112213 0 0 -5.1365e-09 
74 1 0.000216966 0.000322615 0.000781833 5e-05 0.0029567 -0.0233196 -0.100658 0 0 -5.1365e-09 
476 1 0.000123173 0.000378636 0.00078034 5e-05 -0.0456067 0.0147386 -0.0985465 0 0 -5.1365e-09 
227 1 -0.000306027 -0.000270056 0.000997227 5e-05 0.0288111 -0.00950468 -0.121949 0 0 -5.1365e-09 
317 1 7.72801e-05 -0.000310414 0.00100557 5e-05 0.00802177 0.0463019 -0.097969 0 0 -5.1365e-09 
3 1 -1.87462e-05 -0.000234755 0.000973024 5e-05 -0.00102892 0.0587828 -0.111413 0 0 -5.1365e-09 
159 1 0.00030629 -0.000287652 0.000868544 5e-05 0.00427186 0.0276687 -0.0598526 0 0 -5.1365e-09 
429 1 -0.000418918 -0.000140775 0.000915975 5e-05 0.0317411 -0.0170593 -0.114309 0 0 -5.1365e-09 
165 1 -0.000293085 -0.000167541 0.000978042 5e-05 0.0473381 0.000856908 -0.094146 0 0 -5.1365e-09 
455 1 -0.000141759 -0.000105439 0.00098622 5e-05 0.0145165 -0.0156057 -0.119193 0 0 -5.1365e-09 
496 1 0.000349357 -0.000147628 0.000889325 5e-05 -0.039532 0.0102079 -0.0931427 0 0 -5.1365e-09 
26 1 -0.000442559 -1.77549e-05 0.000875943 5e-05 0.0322355 -0.00774432 -0.0983186 0 0 -5.1365e-09 
438 1 -0.000439088 -8.1648e-06 0.000991083 5e-05 0.0310574 0.000150426 -0.116996 0 0 -5.1365e-09 
45 1 -0.00035457 -6.36801e-05 0.000954332 5e-05 0.0330336 -0.0181183 -0.102373 0 0 -5.1365e-09 
214 1 -0.000302178 3.10346e-05 0.000921142 5e-05 0.0199876 -0.00754605 -0.143751 0 0 -5.1365e-09 
228 1 -6.5039e-05 3.48537e-05 0.000884017 5e-05 -0.0439509 -0.0505929 -0.10779 0 0 -5.1365e-09 
34 1 0.000279327 4.05917e-05 0.000970202 5e-05 -0.0324839 0.0185185 -0.113514 0 0 -5.1365e-09 
330 1 0.000324056 -2.07046e-06 0.000885504 5e-05 -0.0514343 0.0317632 -0.115354 0 0 -5.1365e-09 
266 1 0.000422984 4.45751e-05 0.000933215 5e-05 -0.0512669 0.0114024 -0.0886583 0 0 -5.1365e-09 
109 1 -0.000315291 0.000133094 0.000960659 5e-05 0.0372671 -0.00580064 -0.133329 0 0 -5.1365e-09 
347 1 -0.000202899 0.000131228 0.000934542 5e-05 0.0223649 0.00709058 -0.128501 0 0 -5.1365e-09 
504 1 0.000132339 0.000131333 0.000858649 5e-05 -0.0375333 0.0394543 -0.138954 0 0 -5.1365e-09 
225 1 0.000167641 0.000195054 0.00095462 5e-05 -0.0325784 0.0113957 -0.119993 0 0 -5.1365e-09 
479 1 0.000312168 0.000128367 0.000901599 5e-05 -0.0355066 0.0308418 -0.151497 0 0 -5.1365e-09 
282 1 0.000393916 0.000210859 0.00100168 5e-05 -0.0208245 0.0132805 -0.0953596 0 0 -5.1365e-09 
140 1 1.82119e-05 0.000302765 0.000890683 5e-05 -0.0180171 -0.0287945 -0.122928 0 0 -5.1365e-09 
181 1 -3.494e-05 0.00029246 0.000978677 5e-05 -0.00806372 -0.0465356 -0.117046 0 0 -5.1365e-09 
244 1 0.000306959 0.0003057 0.000850539 5e-05 -0.0366452 0.0185326 -0.136397 0 0 -5.1365e-09 
502 1 5.36171e-05 0.00043999 0.000931206 5e-05 -0.00553477 -0.0287003 -0.10875 0 0 -5.1365e-09 
113 1 -0.000231726 -0.000420355 0.00111486 5e-05 0.0302533 -0.00214568 -0.0919111 0 0 -5.1365e-09 
9 1 -5.7443e-05 -0.000456765 0.0011053 5e-05 0.00678737 0.0247327 -0.0839221 0 0 -5.1365e-09 
536 1 5.69417e-05 -0.000386156 0.00110502 5e-05 -0.000629254 0.0197803 -0.101653 0 0 -5.1365e-09 
107 1 0.000150761 -0.00041386 0.00105362 5e-05 -0.024614 0.0138561 -0.0859962 0 0 -5.1365e-09 
514 1 -0.000398673 -0.000279059 0.00111082 5e-05 0.0498739 0.00167756 -0.0812654 0 0 -5.1365e-09 
296 1 0.000267517 -0.000322484 0.00105636 5e-05 -0.0121306 0.0397209 -0.0666314 0 0 -5.1365e-09 
337 1 -0.000430317 -0.000216851 0.0010252 5e-05 0.0260564 -0.00538487 -0.0870275 0 0 -5.1365e-09 
355 1 -0.000467966 -0.000115739 0.00109895 5e-05 0.0294099 -0.0180172 -0.100761 0 0 -5.1365e-09 
103 1 -0.000365183 -0.000141433 0.0010486 5e-05 0.0422016 0.00882698 -0.122303 0 0 -5.1365e-09 
191 1 -0.000316683 -0.000214113 0.00109761 5e-05 0.0189781 -0.000928204 -0.0974176 0 0 -5.1365e-09 
312 1 -0.000264155 -0.000127688 0.00106836 5e-05 0.0398678 -0.0188125 -0.113277 0 0 -5.1365e-09 
204 1 -0.000198264 -0.000205232 0.00106538 5e-05 0.0343415 -0.036444 -0.116166 0 0 -5.1365e-09 
155 1 0.000161284 -7.43055e-05 0.00108608 5e-05 -0.0602652 0.0143934 -0.0984251 0 0 -5.1365e-09 
325 1 0.00028424 -8.0349e-05 0.00102956 5e-05 -0.0386831 0.00476019 -0.11354 0 0 -5.1365e-09 
467 1 0.000348494 -8.56727e-05 0.0011489 5e-05 -0.0168651 0.00205221 -0.0979369 0 0 -5.1365e-09 
258 1 0.000446248 -0.000163001 0.0010781 5e-05 -0.023577 0.00886981 -0.0677136 0 0 -5.1365e-09 
506 1 -0.000373386 -9.39009e-07 0.00110055 5e-05 0.0298076 -0.00094984 -0.111285 0 0 -5.1365e-09 
329 1 -0.000285428 -4.78932e-05 0.00113186 5e-05 0.0398473 -0.0126624 -0.106655 0 0 -5.1365e-09 
431 1 -0.000179918 -2.91126e-05 0.00109291 5e-05 0.0324941 -0.0103705 -0.107637 0 0 -5.1365e-09 
304 1 0.000276799 3.95198e-05 0.00112625 5e-05 -0.0447114 -0.000968943 -0.100275 0 0 -5.1365e-09 
100 1 0.000359422 6.75612e-06 0.00103142 5e-05 -0.0313662 0.0209782 -0.147675 0 0 -5.1365e-09 
208 1 0.000488941 2.54693e-06 0.0010725 5e-05 -0.0206083 0.00261306 -0.096671 0 0 -5.1365e-09 
351 1 -0.000460547 0.000105287 0.00110521 5e-05 0.0287399 -0.00264132 -0.0819641 0 0 -5.1365e-09 
297 1 -0.000414439 0.000205037 0.00104445 5e-05 -0.042332 -0.0318209 -0.114099 0 0 -5.1365e-09 
547 1 0.000211503 0.000181382 0.00110386 5e-05 -0.0420169 0.0252196 -0.101361 0 0 -5.1365e-09 
135 1 0.000312333 0.000218594 0.0010644 5e-05 -0.0361682 0.00346447 -0.0916147 0 0 -5.1365e-09 
11 1 0.000455021 0.000115761 0.00105684 5e-05 -0.0409635 0.0104492 -0.0586013 0 0 -5.1365e-09 
175 1 0.000465938 0.00015313 0.00115593 5e-05 -0.00274313 -0.00550279 -0.0701213 0 0 -5.1365e-09 
195 1 0.000384993 7.99499e-05 0.00112315 5e-05 -0.0268503 -0.00670862 -0.108866 0 0 -5.1365e-09 
174 1 -0.000299358 0.000245017 0.00107662 5e-05 0.0307201 -0.0561326 -0.0569987 0 0 -5.1365e-09 
413 1 0.000272445 0.000342449 0.0010383 5e-05 -0.0316042 0.00293413 -0.104138 0 0 -5.1365e-09 
394 1 -0.000205556 0.000417922 0.00113848 5e-05 0.00989447 -0.0590557 -0.0665925 0 0 -5.1365e-09 
548 1 -4.62038e-05 0.000502765 0.00117618 5e-05 -0.00349288 -0.0205735 -0.0552217 0 0 -5.1365e-09 
218 1 0.000199267 0.00042353 0.00105607 5e-05 -0.062209 0.00315476 -0.0627204 0 0 -5.1365e-09 
207 1 1.63396e-05 -0.00055531 0.00133304 5e-05 0.0264567 0.0296779 -0.0530967 0 0 -5.1365e-09 
68 1 -0.000299444 -0.000417142 0.00120702 5e-05 0.0309343 0.0126628 -0.0764531 0 0 -5.1365e-09 
553 1 0.000143885 -0.000505451 0.00132838 5e-05 0.00346629 0.024211 -0.0736044 0 0 -5.1365e-09 
382 1 0.00011729 -0.000414121 0.00129643 5e-05 0.00128526 0.000876175 -0.0746209 0 0 -5.1365e-09 
298 1 0.00026498 -0.000466545 0.00127397 5e-05 0.0139335 0.0280075 -0.0637341 0 0 -5.1365e-09 
29 1 -0.000390912 -0.000335801 0.00120826 5e-05 0.0334688 0.00390431 -0.0570795 0 0 -5.1365e-09 
237 1 -0.000456754 -0.000273329 0.00128634 5e-05 0.0416197 0.0136797 -0.0565456 0 0 -5.1365e-09 
336 1 -0.000378107 -0.000343504 0.00132239 5e-05 0.0282741 0.0178008 -0.04129 0 0 -5.1365e-09 
400 1 -0.000297458 -0.000318208 0.00117421 5e-05 0.00559576 -0.0222436 -0.102664 0 0 -5.1365e-09 
316 1 0.000281769 -0.000236574 0.00122688 5e-05 -0.0208822 0.0389342 -0.0659014 0 0 -5.1365e-09 
166 1 0.000456878 -0.00026511 0.00125279 5e-05 -0.00114836 0.0210249 -0.0749689 0 0 -5.1365e-09 
46 1 -0.000522019 -9.25431e-05 0.00130126 5e-05 0.0329622 -0.00690357 -0.0635926 0 0 -5.1365e-09 
83 1 -0.000475249 -0.000143403 0.00121509 5e-05 0.0164698 0.0165946 -0.0925005 0 0 -5.1365e-09 
263 1 -0.000413396 -0.000188254 0.00131749 5e-05 0.0287236 0.00599196 -0.0785377 0 0 -5.1365e-09 
295 1 -0.00035921 -0.000241591 0.00122679 5e-05 0.0559127 0.0351772 -0.0977231 0 0 -5.1365e-09 
397 1 -0.000376647 -0.000131246 0.0011908 5e-05 0.0054419 -0.0207323 -0.109061 0 0 -5.1365e-09 
343 1 -0.000257657 -0.000181293 0.00125367 5e-05 0.0141031 -0.00646645 -0.0945046 0 0 -5.1365e-09 
215 1 0.00038648 -0.000168632 0.00121675 5e-05 -0.0289344 -0.00145928 -0.0730238 0 0 -5.1365e-09 
27 1 0.000486379 -9.77582e-05 0.00125565 5e-05 -0.0146575 -0.00153202 -0.0676454 0 0 -5.1365e-09 
233 1 0.000379688 -8.57134e-05 0.0012792 5e-05 -0.0418953 0.00910234 -0.0921465 0 0 -5.1365e-09 
184 1 -0.000533503 1.82839e-05 0.00131967 5e-05 0.0296419 -0.00679002 -0.0485191 0 0 -5.1365e-09 
111 1 -0.000498272 -2.62143e-05 0.00118865 5e-05 0.0302627 -0.0094853 -0.0819612 0 0 -5.1365e-09 
179 1 -0.000417431 3.68261e-05 0.00119407 5e-05 0.012378 -0.0231788 -0.105797 0 0 -5.1365e-09 
532 1 -0.000418159 -5.25407e-05 0.00124933 5e-05 0.0274723 -0.0255224 -0.0943375 0 0 -5.1365e-09 
82 1 -2.78337e-05 -2.02216e-05 0.00121585 5e-05 -0.0582155 -0.0180804 -0.0845775 0 0 -5.1365e-09 
194 1 0.000506722 1.13049e-05 0.00119671 5e-05 -0.0427699 -0.00571429 -0.060488 0 0 -5.1365e-09 
512 1 0.000395699 -3.92462e-06 0.00121289 5e-05 0.00132608 0.00487206 -0.110739 0 0 -5.1365e-09 
465 1 0.000521452 3.24961e-05 0.00129425 5e-05 -0.0447125 -0.0214101 -0.0744667 0 0 -5.1365e-09 
339 1 -0.000510004 9.71973e-05 0.00121653 5e-05 0.00531731 -0.000978626 -0.0716784 0 0 -5.1365e-09 
267 1 -0.000504351 0.000164779 0.00131489 5e-05 0.0283909 -0.0170223 -0.0479831 0 0 -5.1365e-09 
371 1 0.000262619 0.000206418 0.00122372 5e-05 -0.0298536 0.00115212 -0.0881694 0 0 -5.1365e-09 
205 1 0.000324625 0.000114106 0.00121522 5e-05 -0.0196007 0.00747414 -0.113437 0 0 -5.1365e-09 
272 1 0.00024496 0.000115698 0.00132166 5e-05 -0.00653822 0.0048561 -0.0794044 0 0 -5.1365e-09 
21 1 0.000470208 0.000147908 0.00126052 5e-05 0.0147352 0.00136414 -0.104446 0 0 -5.1365e-09 
408 1 -0.000408977 0.000279111 0.0012004 5e-05 0.00855656 -0.0332929 -0.0780092 0 0 -5.1365e-09 
210 1 -0.000468505 0.000262012 0.00134319 5e-05 0.0245038 0.00832525 -0.05504 0 0 -5.1365e-09 
72 1 0.000333462 0.000256971 0.0013174 5e-05 -0.0156783 -0.0109089 -0.0827558 0 0 -5.1365e-09 
290 1 0.000375875 0.000343386 0.0012011 5e-05 -0.0311533 -0.0162124 -0.0533151 0 0 -5.1365e-09 
444 1 0.000411297 0.000245882 0.00118581 5e-05 -0.0361559 0.00653193 -0.0895948 0 0 -5.1365e-09 
419 1 0.000436375 0.000258947 0.00130449 5e-05 -0.00741286 -0.000875766 -0.0848654 0 0 -5.1365e-09 
273 1 -0.000313302 0.000407664 0.00132026 5e-05 -0.0607363 0.0127432 -0.063667 0 0 -5.1365e-09 
88 1 -0.000218457 0.000479186 0.00122103 5e-05 -0.0372006 -0.0134895 -0.0835275 0 0 -5.1365e-09 
494 1 -3.47262e-05 0.000435612 0.00126655 5e-05 -0.0117463 -0.039892 -0.0627807 0 0 -5.1365e-09 
391 1 0.000356906 0.00040009 0.00128225 5e-05 -0.0148582 -0.00488452 -0.0723217 0 0 -5.1365e-09 
67 1 -0.000210847 -0.000543808 0.00146754 5e-05 0.0191025 -0.00784552 -0.0416372 0 0 -5.1365e-09 
373 1 0.000183826 -0.000545615 0.00147013 5e-05 0.00329163 0.0187152 -0.0358068 0 0 -5.1365e-09 
516 1 -0.000335541 -0.000443486 0.00139919 5e-05 0.0138243 0.0097624 -0.0673127 0 0 -5.1365e-09 
283 1 -0.000158004 -0.000497433 0.00137613 5e-05 0.00775486 0.00975003 -0.0512205 0 0 -5.1365e-09 
188 1 0.000258272 -0.000477964 0.00137854 5e-05 0.0246972 -0.00502011 -0.0635408 0 0 -5.1365e-09 
118 1 0.000342994 -0.000449384 0.00142383 5e-05 0.0203681 0.022287 -0.026523 0 0 -5.1365e-09 
545 1 0.000273088 -0.000521744 0.00151127 5e-05 -0.00135136 0.0165243 -0.0359685 0 0 -5.1365e-09 
417 1 -0.000449427 -0.000317096 0.00145644 5e-05 0.00351497 0.00359834 -0.0543713 0 0 -5.1365e-09 
368 1 -0.000261732 -0.000326895 0.00136739 5e-05 0.0211003 0.00820945 -0.076893 0 0 -5.1365e-09 
112 1 -0.000340074 -0.00035361 0.00144408 5e-05 0.00403389 0.0169851 -0.0816265 0 0 -5.1365e-09 
18 1 -0.000347955 -0.00024949 0.00143032 5e-05 0.0030418 0.00254127 -0.0714763 0 0 -5.1365e-09 
99 1 -0.000200941 -0.000328921 0.00149002 5e-05 -0.0105239 -0.00294535 -0.0382113 0 0 -5.1365e-09 
131 1 0.000175934 -0.00032953 0.00143543 5e-05 -0.00678974 0.0201539 -0.0491911 0 0 -5.1365e-09 
236 1 0.000276792 -0.000355698 0.00143557 5e-05 0.0220348 0.0288902 -0.0487187 0 0 -5.1365e-09 
31 1 -0.000546268 -0.000129611 0.00140261 5e-05 0.0181868 0.00955656 -0.0567979 0 0 -5.1365e-09 
430 1 -0.00050998 -0.000221978 0.00137521 5e-05 0.0209576 -0.0168738 -0.0713247 0 0 -5.1365e-09 
80 1 -0.000236761 -6.85227e-05 0.00139309 5e-05 -0.00177714 0.0203221 -0.0658037 0 0 -5.1365e-09 
63 1 -0.000365537 -0.000150551 0.00141391 5e-05 -0.021732 0.00279768 -0.0729363 0 0 -5.1365e-09 
43 1 -0.000175466 -0.000222739 0.00141991 5e-05 0.0102926 -0.00393755 -0.0554056 0 0 -5.1365e-09 
294 1 0.000488967 -0.000127734 0.00137507 5e-05 -0.0142544 0.00871204 -0.0495042 0 0 -5.1365e-09 
338 1 -0.000586332 1.71298e-06 0.00146257 5e-05 0.0310475 -0.00887817 -0.0296087 0 0 -5.1365e-09 
334 1 -0.000452862 -8.79556e-05 0.00138946 5e-05 -0.00950273 -0.0226737 -0.0742378 0 0 -5.1365e-09 
76 1 -0.000425562 7.60008e-05 0.00141653 5e-05 0.0392866 0.0366839 -0.07202 0 0 -5.1365e-09 
333 1 -0.00048472 -0.000104152 0.0014857 5e-05 0.0010574 -0.0118697 -0.0696077 0 0 -5.1365e-09 
360 1 -0.000353084 -3.13419e-05 0.00133707 5e-05 -0.0128993 -0.00131219 -0.0836329 0 0 -5.1365e-09 
345 1 0.00038143 1.17125e-05 0.0014153 5e-05 -0.00197148 -0.0204815 -0.0729966 0 0 -5.1365e-09 
77 1 0.000305966 9.57437e-06 0.00152493 5e-05 0.0137126 0.0105816 -0.0139915 0 0 -5.1365e-09 
143 1 0.000495012 -1.78404e-05 0.00148641 5e-05 -0.0137245 0.00903628 -0.0599829 0 0 -5.1365e-09 
407 1 0.000567171 3.41255e-05 0.00143483 5e-05 -0.0113373 0.0196024 -0.0601375 0 0 -5.1365e-09 
409 1 -0.000531563 0.000113377 0.00144808 5e-05 0.0137091 -0.0313311 -0.0562142 0 0 -5.1365e-09 
161 1 0.000187345 0.00022695 0.00151692 5e-05 0.0118958 0.0159713 -0.0200822 0 0 -5.1365e-09 
458 1 0.000287145 0.000156159 0.00141708 5e-05 -0.00703763 0.0110423 -0.088256 0 0 -5.1365e-09 
515 1 0.000401207 0.000190699 0.00137525 5e-05 -0.0256047 -0.00550666 -0.0832701 0 0 -5.1365e-09 
44 1 0.000501212 0.000203761 0.0013615 5e-05 0.0199719 -0.0115411 -0.0538535 0 0 -5.1365e-09 
568 1 0.000389925 0.000117954 0.00148854 5e-05 -0.0222125 -0.0191427 -0.0662494 0 0 -5.1365e-09 
280 1 -0.000271648 0.000364526 0.0014622 5e-05 -0.0173402 -0.0188506 -0.0421733 0 0 -5.1365e-09 
134 1 0.000161186 0.000316057 0.00139376 5e-05 -0.0281402 -0.0060334 -0.0662966 0 0 -5.1365e-09 
66 1 0.000250419 0.000262362 0.00140103 5e-05 -0.00509093 0.0114902 -0.0766871 0 0 -5.1365e-09 
71 1 0.000324278 0.000392314 0.001402 5e-05 0.00198999 0.0104033 -0.0709624 0 0 -5.1365e-09 
120 1 0.000352538 0.000289891 0.00144199 5e-05 0.00985012 0.00687999 -0.0769795 0 0 -5.1365e-09 
418 1 0.000424738 0.000368162 0.00141038 5e-05 -0.0119228 -0.0030857 -0.0614863 0 0 -5.1365e-09 
16 1 0.000472017 0.00027711 0.00142498 5e-05 -0.0139945 -0.0118027 -0.0626054 0 0 -5.1365e-09 
505 1 -0.000441923 0.000392884 0.00148317 5e-05 0.000345884 0.000207782 -0.000776488 1.49374e-08 8.9661e-09 -3.35227e-08 
223 1 -0.000338813 0.000439187 0.0014198 5e-05 -0.00954872 -0.0231844 -0.0457786 0 0 -5.1365e-09 
435 1 -0.000235232 0.000487414 0.00134154 5e-05 -0.00983544 -0.00463264 -0.0724441 0 0 -5.1365e-09 
56 1 -0.000183032 0.000452958 0.00146062 5e-05 -0.0113656 -0.0297823 -0.0506285 0 0 -5.1365e-09 
450 1 0.000236533 0.000431686 0.00136354 5e-05 -0.0156952 0.0141281 -0.0677395 0 0 -5.1365e-09 
265 1 0.000303426 0.000471702 0.00147277 5e-05 -0.00917334 -0.00643363 -0.0555347 0 0 -5.1365e-09 
540 1 -0.000254466 0.000535078 0.00151218 5e-05 0.00284664 0.00167193 -0.0350374 0 0 -5.1365e-09 
173 1 -0.000162929 0.000548895 0.00142995 5e-05 0.0108212 -0.0082476 -0.0262734 0 0 -5.1365e-09 
571 1 -1.64294e-05 0.000589921 0.00150004 5e-05 -0.00269924 -0.0112719 -0.0293239 0 0 -5.1365e-09 
106 1 9.11027e-05 0.00057347 0.00148708 5e-05 -0.0241269 -0.0140167 -0.0162812 0 0 -5.1365e-09 
7 1 0.000219529 0.000547065 0.00149147 5e-05 -0.0142536 -0.00258171 -0.0445163 0 0 -5.1365e-09 
556 1 -0.000151851 -0.000592554 0.00160118 5e-05 -0.0013695 0.000753688 -0.0117402 0 0 -5.1365e-09 
200 1 -4.28061e-05 -0.000609007 0.00161717 5e-05 0.0110298 -0.00743883 -0.023288 -4.90932e-07 -6.63203e-07 6.92421e-07 
569 1 6.93593e-05 -0.000610699 0.00161537 5e-05 0.0210328 0.00564811 -0.00171079 0 0 -5.1365e-09 
375 1 4.62068e-06 -0.000548948 0.00155288 5e-05 -0.00352815 -0.0114564 0.000257157 4.90932e-07 6.63203e-07 -7.02694e-07 
452 1 0.000147382 -0.000546983 0.00162736 5e-05 -0.00444203 0.0192188 -0.0303591 0 0 -5.1365e-09 
341 1 0.000248106 -0.000570445 0.00164715 5e-05 0.01956 0.0259973 -0.0152616 0 0 -5.1365e-09 
399 1 -0.0004204 -0.000424985 0.00154601 5e-05 0.0127279 0.00708299 -0.0521814 0 0 -5.1365e-09 
286 1 -0.000311856 -0.000402108 0.00159454 5e-05 -0.00743883 0.00805657 -0.0467391 0 0 -5.1365e-09 
416 1 -0.000341628 -0.000501012 0.00164046 5e-05 -0.0256809 -0.0310597 -0.0245145 0 0 -5.1365e-09 
2 1 -0.000247639 -0.000430441 0.00168702 5e-05 -0.0133341 0.00795404 -0.0111917 0 0 -5.1365e-09 
335 1 -0.000186901 -0.000447702 0.00154325 5e-05 -0.00768548 0.00759273 -0.0132359 0 0 -5.1365e-09 
85 1 -0.000208109 -0.000506656 0.00162367 5e-05 3.09893e-06 0.00784432 -0.00728552 0 0 -5.1365e-09 
284 1 -8.64513e-05 -0.000514992 0.00161736 5e-05 0.00756871 -0.000585893 -0.00468102 0 0 -5.1365e-09 
167 1 -0.000161979 -0.000396948 0.00162607 5e-05 0.00194352 0.00960448 -0.0071017 0 0 -5.1365e-09 
523 1 -3.72131e-05 -0.000452063 0.00155 5e-05 0.00581409 -0.00192973 -0.000244049 -2.84335e-08 2.43063e-09 5.1938e-08 
4 1 -5.11092e-05 -0.000425339 0.0016465 5e-05 0.00506579 0.00234598 0.00411962 0 0 -5.1365e-09 
41 1 7.1862e-05 -0.000449729 0.00164707 5e-05 0.0143 0.0107796 -3.52354e-05 0 0 -5.1365e-09 