ITEM: TIMESTEP
29000
ITEM: NUMBER OF ATOMS
445
ITEM: BOX BOUNDS ff ff ff
-0.001 0.001
-0.001 0.001
0 0.004
ITEM: ATOMS id type x y z radius vx vy vz fx fy fz 
342 1 -1.6178e-05 -0.000250101 3.15623e-05 5e-05 0.0393003 0.0295765 -0.0996966 0 0 -5.1365e-09 
473 1 0.000128105 -0.000206541 7.96705e-05 5e-05 0.00706125 0.0500016 -0.0924207 0 0 -5.1365e-09 
26 1 -0.000227302 -8.15595e-05 1.02798e-05 5e-05 0.0387693 -0.00859314 -0.083954 0 0 -5.1365e-09 
387 1 -0.000126804 -0.000208771 2.51155e-05 5e-05 0.0104469 -0.0261433 -0.140356 0 0 -5.1365e-09 
276 1 -0.000164159 0.000566532 0.00174694 5e-05 -0.0265639 -0.0259899 -0.0263787 0 0 -5.1365e-09 
45 1 -0.00011097 -0.00010952 1.42567e-05 5e-05 0.00217996 -0.015387 -0.148031 0 0 -5.1365e-09 
165 1 4.8512e-06 -0.00010014 7.92349e-06 5e-05 0.0762235 0.027287 -0.110754 0 0 -5.1365e-09 
542 1 -2.9447e-05 0.000468161 0.00169208 5e-05 -0.0119228 0.0148312 -0.0431443 0 0 -5.1365e-09 
197 1 -0.000314877 0.000512626 0.00169644 5e-05 0.00568131 0.0134113 -0.0236149 0 0 -5.1365e-09 
496 1 0.000229152 -6.2304e-05 7.16179e-06 5e-05 -0.0622829 0.0671021 -0.0389269 0 0 -5.1365e-09 
488 1 -0.000174027 0.000281245 0.00169538 5e-05 -0.00963129 0.00690685 -0.0157993 0 0 -5.1365e-09 
483 1 -0.000395234 0.000341666 0.00169808 5e-05 -0.0163808 0.013472 -0.022298 0 0 -5.1365e-09 
501 1 -0.000407725 0.000276568 0.00178263 5e-05 0.0345235 -0.00341382 -0.0227434 0 0 -5.1365e-09 
330 1 0.00010563 2.12987e-05 -3.29893e-05 5e-05 -0.0201895 -0.0158533 -0.15071 0 0 -5.1365e-09 
140 1 -0.000174711 0.00017781 1.40758e-05 5e-05 0.00653942 -0.0509734 -0.0976593 0 0 -5.1365e-09 
441 1 -2.41548e-05 0.000198345 -1.00203e-05 5e-05 -0.0390182 -0.0292112 -0.118177 0 0 -5.1365e-09 
55 1 0.000593138 0.000198473 0.00167448 5e-05 0.0167707 0.0195225 -0.0451428 0 0 -5.1365e-09 
479 1 3.28319e-05 0.000110754 -1.45674e-06 5e-05 -0.0502735 0.0635019 -0.13336 0 0 -5.1365e-09 
181 1 -8.54543e-05 0.000104339 4.16628e-05 5e-05 -0.0520335 -0.00294372 -0.128601 0 0 -5.1365e-09 
411 1 -7.34714e-06 0.000204428 0.0017031 5e-05 0.00519742 -0.000354497 -0.0103219 0 0 -5.1365e-09 
346 1 9.54747e-05 0.000217757 6.98794e-06 5e-05 -0.0202961 0.00346727 -0.0965102 0 0 -5.1365e-09 
84 1 0.000107607 0.000130477 6.92291e-05 5e-05 0.0234553 -0.0198159 -0.140478 0 0 -5.1365e-09 
287 1 0.000196305 8.44783e-05 1.77741e-05 5e-05 -0.0524258 0.00472564 -0.0794369 0 0 -5.1365e-09 
256 1 -7.70374e-05 0.000224328 7.99948e-05 5e-05 -0.0495273 -0.0162188 -0.102621 0 0 -5.1365e-09 
204 1 -2.89983e-05 -0.000267459 0.000166412 5e-05 -0.00576539 0.0108715 -0.132334 0 0 -5.1365e-09 
429 1 -0.00021396 -0.000135701 0.00014444 5e-05 -0.00123579 0.0031525 -0.14729 0 0 -5.1365e-09 
227 1 -0.000123647 -0.000188393 0.000136133 5e-05 0.0366643 0.042038 -0.0853794 0 0 -5.1365e-09 
103 1 -0.000133839 -6.86321e-05 0.000169611 5e-05 -0.00647225 0.0286293 -0.123312 0 0 -5.1365e-09 
168 1 5.3845e-05 -0.000202855 0.000149618 5e-05 0.0118352 -0.0140799 -0.139898 3.39483e-07 -9.10901e-07 -9.06484e-07 
455 1 1.65365e-05 -0.000109922 0.000123586 5e-05 0.00636327 0.0127586 -0.153319 0 0 -5.1365e-09 
438 1 -0.000252629 -3.9882e-05 0.000111313 5e-05 0.0418857 -0.00948107 -0.0787411 0 0 -5.1365e-09 
226 1 -0.000277348 3.85249e-05 0.000171695 5e-05 -0.00217416 -0.0112112 -0.0681762 0 0 -5.1365e-09 
109 1 -0.000146644 1.55561e-05 6.62032e-05 5e-05 0.0284179 -0.0313676 -0.128088 0 0 -5.1365e-09 
506 1 -0.000184038 3.10884e-05 0.000207257 5e-05 0.0323844 0.00334167 -0.0866776 0 0 -5.1365e-09 
431 1 -9.64923e-05 5.72951e-05 0.000143277 5e-05 0.0248369 -0.00522511 -0.142707 0 0 -5.1365e-09 
228 1 -5.90809e-05 -4.34465e-05 8.83947e-05 5e-05 -0.0228419 0.0312316 -0.17894 0 0 -5.1365e-09 
3 1 2.00039e-05 3.3905e-06 2.15937e-05 5e-05 -0.0283702 0.00591729 -0.168967 0 0 -5.1365e-09 
155 1 -2.73102e-05 -3.85488e-05 0.00018863 5e-05 -0.034451 -0.00284568 -0.1013 0 0 -5.1365e-09 
100 1 2.31437e-05 5.59324e-05 0.00011615 5e-05 -0.0243444 -0.0869048 -0.0995922 0 0 -5.1365e-09 
325 1 7.59377e-05 -2.15182e-05 0.000178904 5e-05 -0.0282693 0.013331 -0.122994 0 0 -5.1365e-09 
266 1 0.000166142 3.35696e-05 0.00016495 5e-05 -0.0609454 0.00898644 -0.137693 0 0 -5.1365e-09 
447 1 0.00025695 6.63914e-05 9.8324e-05 5e-05 -0.0349395 -0.000976289 -0.0633754 0 0 -5.1365e-09 
224 1 -0.000223766 0.000137538 9.86456e-05 5e-05 0.0271917 -0.0410475 -0.0938518 0 0 -5.1365e-09 
225 1 1.02302e-05 0.000170072 0.000129955 5e-05 0.0126191 -0.0366596 -0.102072 0 0 -5.1365e-09 
34 1 3.45105e-05 0.000171243 0.000228402 5e-05 -0.0379598 0.00726656 -0.122238 0 0 -5.1365e-09 
476 1 -0.000150365 0.000215821 0.000167606 5e-05 -0.0410773 -0.0618848 -0.105648 0 0 -5.1365e-09 
74 1 8.23104e-05 0.000257585 0.000132187 5e-05 0.00928999 -0.0100372 -0.0686467 0 0 -5.1365e-09 
191 1 -8.75596e-05 -0.000261123 0.00029825 5e-05 0.0461248 -0.0465315 -0.113027 0 0 -5.1365e-09 
9 1 9.28279e-05 -0.000268012 0.000237519 5e-05 0.0309419 0.0431218 -0.15118 0 0 -5.1365e-09 
337 1 -0.000195594 -0.000189268 0.000345311 5e-05 0.0136417 -0.0143888 -0.0983375 0 0 -5.1365e-09 
397 1 -0.000108728 -0.000129851 0.000306818 5e-05 0.015439 0.0275899 -0.121295 0 0 -5.1365e-09 
312 1 -5.12327e-05 -0.00014293 0.000219574 5e-05 -0.0337315 0.00423098 -0.125655 0 0 -5.1365e-09 
536 1 3.64312e-05 -0.000215133 0.000306977 5e-05 0.066855 0.00303636 -0.129942 0 0 -5.1365e-09 
42 1 0.000161171 -0.000147949 0.000301406 5e-05 -0.0217465 0.0300713 -0.0978439 0 0 -5.1365e-09 
317 1 7.3284e-05 -0.000139753 0.000224622 5e-05 -0.00961108 -0.0200383 -0.0918749 -3.39483e-07 9.10901e-07 8.96211e-07 
107 1 5.24271e-05 -0.000116466 0.000417 5e-05 -0.0420581 0.0702215 -0.0572742 0 0 -5.1365e-09 
159 1 0.000280635 -0.00010631 0.000240665 5e-05 -0.042665 0.0358898 -0.0521467 0 0 -5.1365e-09 
351 1 -0.000300453 4.03072e-05 0.000316821 5e-05 0.0388333 -0.012544 -0.133352 0 0 -5.1365e-09 
355 1 -0.000195796 -5.37192e-05 0.000360021 5e-05 0.026821 0.0305353 -0.117897 0 0 -5.1365e-09 
329 1 -9.75775e-05 -1.8195e-05 0.000268018 5e-05 0.0187667 0.00479395 -0.149711 0 0 -5.1365e-09 
135 1 -5.55579e-06 5.60717e-05 0.000265014 5e-05 -0.0506748 -0.00401912 -0.108449 0 0 -5.1365e-09 
467 1 0.00018718 -5.18075e-05 0.000229804 5e-05 -0.0147029 0.000112821 -0.127142 0 0 -5.1365e-09 
304 1 7.30642e-05 -5.11311e-05 0.000275149 5e-05 -0.0162219 0.0216947 -0.0954223 0 0 -5.1365e-09 
512 1 0.00021289 5.20228e-05 0.000295534 5e-05 -0.016324 0.0346315 -0.147571 0 0 -5.1365e-09 
208 1 0.000300251 -1.61517e-06 0.000275715 5e-05 -0.0304311 -0.00476405 -0.094374 0 0 -5.1365e-09 
174 1 -0.000151772 0.00011581 0.000354587 5e-05 0.0494458 -0.0355065 -0.128015 0 0 -5.1365e-09 
297 1 -0.00020869 0.000194117 0.000324802 5e-05 0.0210957 -0.0271359 -0.105978 0 0 -5.1365e-09 
195 1 0.000136937 0.000123645 0.000207316 5e-05 -0.0585581 0.0307361 -0.13685 0 0 -5.1365e-09 
205 1 6.12501e-05 0.00011005 0.000322748 5e-05 -0.0192216 -0.0327384 -0.0633044 0 0 -5.1365e-09 
282 1 0.000170822 0.000215316 0.000284915 5e-05 -0.0205854 0.0115912 -0.116254 0 0 -5.1365e-09 
11 1 0.000239625 0.000109778 0.000377711 5e-05 -0.0599288 -0.0390755 -0.0718265 0 0 -5.1365e-09 
502 1 -0.000134107 0.00026203 0.000369367 5e-05 -0.0415924 -0.0583686 -0.0729732 0 0 -5.1365e-09 
547 1 -5.04775e-05 0.000212872 0.000281128 5e-05 -0.00451635 -0.0450582 -0.0847552 0 0 -5.1365e-09 
413 1 -2.78502e-05 0.000301187 0.000375702 5e-05 0.00372918 -0.0208831 -0.0749373 0 0 -5.1365e-09 
244 1 5.94876e-05 0.000262012 0.000267806 5e-05 -0.0530808 0.00223208 -0.0832432 0 0 -5.1365e-09 
514 1 -0.000161405 -0.000255419 0.000457647 5e-05 0.0210622 -0.024191 -0.128627 0 0 -5.1365e-09 
400 1 -5.00338e-05 -0.000335411 0.000455754 5e-05 0.0474757 0.0427555 -0.0813607 0 0 -5.1365e-09 
382 1 0.000150685 -0.000270225 0.000481195 5e-05 0.00478109 0.0206207 -0.150822 0 0 -5.1365e-09 
532 1 -0.00024588 -0.00010576 0.000432112 5e-05 0.00874177 0.0202294 -0.14259 0 0 -5.1365e-09 
295 1 -4.96921e-05 -0.000201786 0.000380003 5e-05 0.0194704 0.0181195 -0.0978088 0 0 -5.1365e-09 
82 1 -0.000103899 -0.000200198 0.000521827 5e-05 0.0468368 -0.0103805 -0.103162 0 0 -5.1365e-09 
296 1 0.0001536 -8.20233e-05 0.000389504 5e-05 -0.020387 0.0290202 -0.123941 0 0 -5.1365e-09 
258 1 0.000281209 -0.000100912 0.000363761 5e-05 -0.023577 0.00886981 -0.136384 0 0 -5.1365e-09 
215 1 0.000271947 -0.000145397 0.000490514 5e-05 -0.0139524 0.00423506 -0.137391 0 0 -5.1365e-09 
111 1 -0.000330489 -5.10038e-05 0.000415347 5e-05 0.0475343 0.00531649 -0.124905 0 0 -5.1365e-09 
408 1 -0.000293577 4.80473e-05 0.000479655 5e-05 0.0165197 -0.00793791 -0.13451 0 0 -5.1365e-09 
179 1 -0.000196166 3.52602e-05 0.000431284 5e-05 0.0274836 0.0464418 -0.115075 0 0 -5.1365e-09 
233 1 0.000112815 2.94017e-05 0.000387957 5e-05 -0.0605007 0.0236562 -0.104806 0 0 -5.1365e-09 
394 1 -4.09072e-05 0.000123201 0.000500627 5e-05 0.0597706 -0.0525236 -0.117618 0 0 -5.1365e-09 
371 1 5.36435e-05 0.000214483 0.000366188 5e-05 -0.0298536 0.00115212 -0.156839 0 0 -5.1365e-09 
72 1 0.000163205 0.000143075 0.000485118 5e-05 -0.0347179 -0.0288505 -0.157913 0 0 -5.1365e-09 
175 1 0.00030912 0.000151588 0.000485689 5e-05 -0.0128647 -0.0137037 -0.133805 0 0 -5.1365e-09 
218 1 -9.87444e-05 0.000248068 0.0004894 5e-05 0.00955025 -6.00712e-05 -0.0835447 0 0 -5.1365e-09 
444 1 0.000199375 0.000244937 0.000481919 5e-05 -0.0353478 -0.0012591 -0.0460642 0 0 -5.1365e-09 
29 1 -0.000223255 -0.000268632 0.000543138 5e-05 0.0210466 0.00297674 -0.107688 0 0 -5.1365e-09 
237 1 -0.000291194 -0.000246742 0.000661256 5e-05 0.0300412 -0.010755 -0.109524 0 0 -5.1365e-09 
113 1 6.78885e-05 -0.000352727 0.000564073 5e-05 0.0661547 0.00672147 -0.0993978 0 0 -5.1365e-09 
68 1 -4.25941e-06 -0.000371496 0.000647651 5e-05 0.0515941 -0.0154456 -0.102019 0 0 -5.1365e-09 
83 1 -0.000290122 -0.000179811 0.00055838 5e-05 0.0253122 0.0126566 -0.115921 0 0 -5.1365e-09 
46 1 -0.000313415 -6.86198e-05 0.000659568 5e-05 0.0443007 0.0249064 -0.101816 0 0 -5.1365e-09 
336 1 -0.000153646 -0.00017984 0.000627593 5e-05 0.016128 0.037664 -0.119803 0 0 -5.1365e-09 
343 1 -4.10146e-05 -9.72971e-05 0.000631717 5e-05 -0.0113183 0.00657285 -0.0929255 0 0 -5.1365e-09 
166 1 0.000331125 -0.00014894 0.000684424 5e-05 -0.0229968 0.0261137 -0.0834072 0 0 -5.1365e-09 
27 1 0.000302538 -8.00506e-05 0.000585923 5e-05 -0.0487529 -0.00421147 -0.11857 0 0 -5.1365e-09 
339 1 -0.000340236 5.26028e-05 0.00059192 5e-05 0.0244907 -0.00643847 -0.123354 0 0 -5.1365e-09 
360 1 -0.000225366 -2.56242e-05 0.000560878 5e-05 0.0488562 -0.0333324 -0.151236 0 0 -5.1365e-09 
80 1 -0.000224501 -1.44737e-05 0.000673278 5e-05 0.0128195 -0.0139462 -0.112251 0 0 -5.1365e-09 
316 1 4.34669e-05 -4.57548e-05 0.000523576 5e-05 -0.000905328 0.0230057 -0.154399 0 0 -5.1365e-09 
465 1 0.000155744 -5.84104e-05 0.000598377 5e-05 -0.0532516 -0.0197552 -0.140611 0 0 -5.1365e-09 
515 1 0.00016602 1.18515e-05 0.000673441 5e-05 -0.0435154 -0.0279591 -0.118759 0 0 -5.1365e-09 
194 1 0.000382023 -4.31077e-06 0.000646588 5e-05 -0.0207713 -0.0280204 -0.0955327 0 0 -5.1365e-09 
494 1 -0.000115075 0.000166854 0.000633533 5e-05 -0.0100698 -0.0304909 -0.0895311 0 0 -5.1365e-09 
88 1 -0.000222184 0.000183601 0.000600917 5e-05 0.000313145 -0.042889 -0.122248 0 0 -5.1365e-09 
272 1 0.000158231 5.20441e-05 0.000556992 5e-05 -0.0272416 -0.0355825 -0.129143 0 0 -5.1365e-09 
458 1 0.000107724 0.000125167 0.000646076 5e-05 -0.0346838 -0.0175343 -0.138501 0 0 -5.1365e-09 
21 1 0.000281621 8.25182e-05 0.000674825 5e-05 -0.041207 -0.0254867 -0.138811 0 0 -5.1365e-09 
419 1 0.000313837 0.000196129 0.000696807 5e-05 -0.0259598 -0.0112564 -0.083079 0 0 -5.1365e-09 
548 1 -4.98373e-05 0.00031391 0.000599223 5e-05 -0.0165935 -0.00651602 -0.133963 0 0 -5.1365e-09 
290 1 0.000165645 0.00028105 0.000631386 5e-05 -0.0455723 -0.0206785 -0.0793937 0 0 -5.1365e-09 
283 1 -6.07828e-05 -0.000404564 0.000821351 5e-05 0.0425795 0.0337788 -0.0767441 0 0 -5.1365e-09 
430 1 -0.000341774 -0.000238886 0.000821244 5e-05 0.0449517 0.0122354 -0.0837327 0 0 -5.1365e-09 
112 1 -0.000133211 -0.000315068 0.000761779 5e-05 0.0165871 0.0173441 -0.134551 0 0 -5.1365e-09 
43 1 -9.96231e-05 -0.000225034 0.000797304 5e-05 0.0132839 0.0210131 -0.119771 0 0 -5.1365e-09 
368 1 5.92429e-05 -0.000264744 0.000691115 5e-05 0.0608238 0.0235462 -0.115333 0 0 -5.1365e-09 
207 1 5.51073e-05 -0.000347276 0.000781045 5e-05 0.00118351 0.0297266 -0.111407 0 0 -5.1365e-09 
553 1 0.00018569 -0.000296622 0.000730577 5e-05 -0.0341194 -0.00229778 -0.0954748 0 0 -5.1365e-09 
63 1 -0.000256624 -0.000147433 0.000688932 5e-05 0.0566273 0.00358734 -0.134528 0 0 -5.1365e-09 
18 1 -0.000202746 -0.000206717 0.000764598 5e-05 0.0411152 -0.00114952 -0.115869 0 0 -5.1365e-09 
298 1 0.000232563 -0.000201478 0.000684108 5e-05 -0.00665482 0.0310319 -0.146141 0 0 -5.1365e-09 
345 1 0.000249973 -0.000132096 0.000762987 5e-05 -0.0239361 0.0173448 -0.109422 0 0 -5.1365e-09 
294 1 0.000384107 -9.03037e-05 0.000797762 5e-05 -0.0229518 -0.00997665 -0.0898758 0 0 -5.1365e-09 
184 1 -0.000377064 7.25427e-05 0.000793643 5e-05 0.0349593 0.00652771 -0.100293 0 0 -5.1365e-09 
334 1 -0.000320274 -9.9565e-06 0.000764492 5e-05 0.0262621 0.0278057 -0.10908 0 0 -5.1365e-09 
263 1 -0.000123926 -2.98878e-05 0.000731898 5e-05 0.0383109 0.0330885 -0.108401 0 0 -5.1365e-09 
568 1 0.000234438 -1.60447e-05 0.00078445 5e-05 -0.0222125 -0.0191427 -0.134919 0 0 -5.1365e-09 
267 1 -0.000302487 0.00012099 0.000705093 5e-05 0.0282425 -0.000550493 -0.12586 0 0 -5.1365e-09 
210 1 -0.000313986 0.000172423 0.000832897 5e-05 0.0250876 -0.0285621 -0.0925356 0 0 -5.1365e-09 
76 1 -0.00017797 9.75788e-05 0.000693319 5e-05 0.0254263 -0.0358159 -0.135149 0 0 -5.1365e-09 
120 1 0.000184222 0.00014951 0.000708504 5e-05 -0.0843475 -0.017134 -0.106086 0 0 -5.1365e-09 
466 1 0.000263881 0.000107705 0.000776525 5e-05 -0.0392831 -0.0165533 -0.122259 0 0 -5.1365e-09 
44 1 0.000359584 0.000145467 0.000808873 5e-05 -0.0413489 -0.00776141 -0.0842013 0 0 -5.1365e-09 
435 1 -0.000136056 0.00035559 0.000774525 5e-05 0.0372628 -0.037918 -0.0747918 0 0 -5.1365e-09 
273 1 -0.00016532 0.000267913 0.000716485 5e-05 0.0297694 0.0188003 -0.132773 0 0 -5.1365e-09 
134 1 -3.52831e-05 0.000273018 0.00069012 5e-05 -0.00361864 -0.0445322 -0.0977397 0 0 -5.1365e-09 
450 1 4.03136e-05 0.000350759 0.000821527 5e-05 -0.0401779 -0.024089 -0.0977663 0 0 -5.1365e-09 
66 1 5.03385e-05 0.00019873 0.00074786 5e-05 -0.0615148 -0.0509482 -0.102035 0 0 -5.1365e-09 
391 1 0.000156996 0.000319622 0.000730244 5e-05 -0.0321854 -0.0249667 -0.0831593 0 0 -5.1365e-09 
16 1 0.000309107 0.000260238 0.000851988 5e-05 -0.027453 -0.00158203 -0.0955245 0 0 -5.1365e-09 
516 1 -0.000137689 -0.000412028 0.000893248 5e-05 0.0321674 0.0119223 -0.0888422 0 0 -5.1365e-09 
373 1 0.000184315 -0.000417963 0.000967169 5e-05 -0.00818283 0.0452022 -0.0775753 0 0 -5.1365e-09 
417 1 -0.000293317 -0.000321852 0.000974492 5e-05 0.0293068 0.0105559 -0.0843284 0 0 -5.1365e-09 
99 1 -0.000181297 -0.0003571 0.000968426 5e-05 0.0330918 -0.005238 -0.106583 0 0 -5.1365e-09 
188 1 0.000151881 -0.000274355 0.000922397 5e-05 -0.0186542 0.0320422 -0.0966653 0 0 -5.1365e-09 
511 1 0.000260098 -0.000244054 0.000995022 5e-05 0.00724937 0.026665 -0.110934 0 0 -5.1365e-09 
31 1 -0.000409382 -0.000159653 0.000931227 5e-05 0.00885789 0.0185299 -0.0446872 0 0 -5.1365e-09 
333 1 -0.000270622 -9.45798e-05 0.00083182 5e-05 0.0296516 0.00274716 -0.13048 0 0 -5.1365e-09 
269 1 -0.000297677 -0.000156779 0.00092542 5e-05 0.0636584 0.00731497 -0.121092 0 0 -5.1365e-09 
131 1 0.000128406 -0.000188452 0.00085075 5e-05 -0.00678974 0.0201539 -0.117861 0 0 -5.1365e-09 
236 1 0.00037871 -0.000162877 0.000903329 5e-05 -0.0544376 0.0184195 -0.046235 0 0 -5.1365e-09 
409 1 -0.000363088 -4.88702e-05 0.000882704 5e-05 0.0462669 0.0151211 -0.10291 0 0 -5.1365e-09 
270 1 -0.000223615 -6.80326e-05 0.000960522 5e-05 0.0256065 0.00906186 -0.118958 0 0 -5.1365e-09 
143 1 0.000354841 -5.53854e-06 0.000843898 5e-05 -0.049203 0.0424056 -0.116708 0 0 -5.1365e-09 
189 1 0.000288626 4.22424e-05 0.00091391 5e-05 -0.0370215 -0.0138382 -0.115608 0 0 -5.1365e-09 
407 1 0.000449908 -6.01817e-06 0.000926885 5e-05 -0.0198848 -0.0182394 -0.0945531 0 0 -5.1365e-09 
280 1 -0.000288383 0.000113698 0.000996144 5e-05 1.4403e-05 -0.0384186 -0.0992476 0 0 -5.1365e-09 
164 1 0.000204067 0.00020507 0.000861839 5e-05 -0.0223012 -0.0334606 -0.129414 0 0 -5.1365e-09 
520 1 0.000372416 0.000184186 0.000906638 5e-05 -0.0452283 -0.0159574 -0.104514 0 0 -5.1365e-09 
223 1 -0.000421301 0.000212609 0.000991992 5e-05 -0.0116951 -0.04014 -0.0925119 0 0 -5.1365e-09 
56 1 -0.000162538 0.000362826 0.00101068 5e-05 0.0131708 -0.011531 -0.102804 0 0 -5.1365e-09 
71 1 0.000183819 0.000311555 0.000863592 5e-05 -0.0325315 -0.00495369 -0.0966331 0 0 -5.1365e-09 
418 1 0.00027984 0.000330724 0.000967433 5e-05 -0.029653 -0.0096288 -0.0804094 0 0 -5.1365e-09 
7 1 0.000126368 0.000448784 0.000992116 5e-05 -0.00934834 -0.0215381 -0.101833 0 0 -5.1365e-09 
265 1 0.000197973 0.000391491 0.000930618 5e-05 -0.0236688 -0.0392897 -0.0823996 0 0 -5.1365e-09 
67 1 -5.5531e-05 -0.000444922 0.00106389 5e-05 0.0223876 0.0155482 -0.0908152 0 0 -5.1365e-09 
545 1 0.000265941 -0.000374527 0.0010669 5e-05 -0.0167445 0.0373355 -0.0750175 0 0 -5.1365e-09 
399 1 -0.000323289 -0.00035682 0.00110821 5e-05 0.0204731 0.0146802 -0.0671567 0 0 -5.1365e-09 
395 1 -0.000280663 -0.000213742 0.00103168 5e-05 0.0382976 -0.0065374 -0.100487 0 0 -5.1365e-09 
286 1 -0.000208433 -0.000289097 0.00109052 5e-05 0.0333024 0.028705 -0.10205 0 0 -5.1365e-09 
118 1 0.000371653 -0.000254015 0.00106267 5e-05 -0.00413893 0.0307546 -0.0812431 0 0 -5.1365e-09 
470 1 -0.000402122 -0.000222361 0.00101962 5e-05 0.0135109 -0.00167459 -0.0914637 0 0 -5.1365e-09 
338 1 -0.000436574 -8.77433e-05 0.00101 5e-05 0.0107095 -0.0101015 -0.100751 0 0 -5.1365e-09 
137 1 -0.000439695 -0.000149967 0.0011267 5e-05 0.000327256 0.00220359 -0.0995548 0 0 -5.1365e-09 
527 1 -0.000311324 -0.000103784 0.00103374 5e-05 0.0134706 0.0381419 -0.101667 0 0 -5.1365e-09 
262 1 -0.000333947 -0.000202747 0.00113183 5e-05 0.0103411 0.00933674 -0.0917362 0 0 -5.1365e-09 
154 1 -0.000158312 -0.000212724 0.00102781 5e-05 0.0509797 0.00537622 -0.105526 0 0 -5.1365e-09 
484 1 -0.000210399 -0.000190272 0.00113455 5e-05 0.0161772 -0.00690668 -0.0935043 0 0 -5.1365e-09 
58 1 -0.00034556 2.78651e-06 0.00115224 5e-05 0.0405283 0.010128 -0.0988413 0 0 -5.1365e-09 
77 1 0.000184679 6.43218e-05 0.00113888 5e-05 -0.0186214 0.00770742 -0.0897697 0 0 -5.1365e-09 
198 1 0.000492274 -1.02964e-05 0.00109498 5e-05 -0.0307213 -0.00177924 -0.0744086 0 0 -5.1365e-09 
161 1 0.000162703 0.000208561 0.00109019 5e-05 -0.0271697 -0.0188918 -0.0794492 0 0 -5.1365e-09 
426 1 0.000323842 7.39789e-05 0.00109801 5e-05 -0.00670199 -0.0119464 -0.106903 0 0 -5.1365e-09 
451 1 0.000267979 0.000217607 0.00110453 5e-05 -0.0241441 0.00148184 -0.116082 0 0 -5.1365e-09 
500 1 0.000428355 0.000116397 0.00103768 5e-05 -0.0166392 0.0207208 -0.125495 0 0 -5.1365e-09 
105 1 0.00039567 0.000210936 0.00108283 5e-05 -0.0249014 -0.0164374 -0.0898451 0 0 -5.1365e-09 
522 1 -0.000333725 0.000328242 0.00109891 5e-05 0.0197817 -0.0335858 -0.0644504 0 0 -5.1365e-09 
8 1 0.000187403 0.000306682 0.00106805 5e-05 -0.0302661 -0.0197077 -0.0990127 0 0 -5.1365e-09 
176 1 0.000283472 0.000237099 0.00100502 5e-05 -0.00203501 -0.0176264 -0.115653 0 0 -5.1365e-09 
234 1 0.000369995 0.000328497 0.0011511 5e-05 -0.0187274 -0.0384984 -0.0738955 0 0 -5.1365e-09 
540 1 -0.000260722 0.000419589 0.00113296 5e-05 0.0149894 -0.0348414 -0.0635543 0 0 -5.1365e-09 
173 1 -8.90129e-05 0.000464673 0.00102676 5e-05 0.0117146 -0.0271924 -0.0770027 0 0 -5.1365e-09 
486 1 -0.000114863 0.000402635 0.00110577 5e-05 0.0143688 -0.00583382 -0.066881 0 0 -5.1365e-09 
106 1 1.94526e-05 0.000462003 0.00106119 5e-05 -0.0146205 -0.0142073 -0.0949825 0 0 -5.1365e-09 
571 1 -8.05313e-05 0.000497543 0.00114409 5e-05 -0.00642904 -0.0183683 -0.0803488 2.56379e-07 -7.41896e-07 6.43782e-07 
566 1 0.000275028 0.000386387 0.00109513 5e-05 -0.0143377 -0.0267238 -0.0742464 0 0 -5.1365e-09 
416 1 -0.000339524 -0.000423503 0.00132537 5e-05 0.0081986 0.0129153 -0.0474346 0 0 -5.1365e-09 
14 1 0.000181616 -0.000473415 0.00121508 5e-05 -0.00926393 0.0313863 -0.0588458 0 0 -5.1365e-09 
357 1 -0.00041426 -0.000295654 0.00117765 5e-05 0.0283637 -0.0031281 -0.0861415 0 0 -5.1365e-09 
396 1 -0.000357143 -0.000383306 0.00123456 5e-05 0.0255637 0.0321758 -0.0483723 1.57977e-06 5.06701e-07 5.79663e-07 
185 1 -0.000311692 -0.000258246 0.00121782 5e-05 0.0403358 0.0256887 -0.0894242 0 0 -5.1365e-09 
138 1 -0.000338978 -0.000313301 0.00131099 5e-05 -0.0117576 0.0185739 -0.0932972 0 0 -5.1365e-09 
335 1 -0.000188571 -0.00036004 0.00119571 5e-05 0.0119718 0.0134885 -0.0869467 0 0 -5.1365e-09 
544 1 -0.000118199 -0.000281761 0.00117962 5e-05 0.0260577 0.00627215 -0.0855937 0 0 -5.1365e-09 
203 1 0.000255027 -0.000303404 0.00121491 5e-05 0.00996011 0.0137032 -0.0913802 0 0 -5.1365e-09 
255 1 0.00046244 -0.000292667 0.0013335 5e-05 -0.00304045 0.0169472 -0.0601512 0 0 -5.1365e-09 
370 1 -0.000530552 -0.000116178 0.00131878 5e-05 -0.00879905 0.021177 -0.0810269 0 0 -5.1365e-09 
15 1 -0.000307078 -0.000120348 0.00119163 5e-05 0.0202824 0.00640251 -0.0882065 0 0 -5.1365e-09 
567 1 -0.000349003 -0.000146534 0.00127957 5e-05 -0.0141162 0.0112724 -0.0950639 0 0 -5.1365e-09 
518 1 0.000495035 -0.000197341 0.00126442 5e-05 -0.0206848 0.0158723 -0.0620393 0 0 -5.1365e-09 
93 1 0.000533632 -8.14816e-05 0.00130062 5e-05 -0.00479382 0.0177427 -0.0701201 0 0 -5.1365e-09 
495 1 -0.000503278 -7.30329e-05 0.00123073 5e-05 0.00884625 0.00121384 -0.0664871 0 0 -5.1365e-09 
145 1 -0.000499028 4.39137e-05 0.00122251 5e-05 0.0125928 0.0189005 -0.0677701 0 0 -5.1365e-09 
69 1 0.00033814 -8.12085e-05 0.00117204 5e-05 -0.0162379 -0.0259887 -0.0887711 0 0 -5.1365e-09 
327 1 0.000513901 7.67671e-05 0.00121762 5e-05 -0.0222347 0.00604119 -0.0634398 0 0 -5.1365e-09 
64 1 0.000279134 0.000172414 0.00123257 5e-05 0.00337598 0.0100896 -0.0924078 0 0 -5.1365e-09 
404 1 0.000417218 9.46059e-05 0.00116515 5e-05 0.000707198 -0.0434383 -0.0960549 0 0 -5.1365e-09 
307 1 0.000449488 0.000144837 0.00127377 5e-05 -0.0231671 0.0253629 -0.0763022 0 0 -5.1365e-09 
94 1 0.000523488 0.000179671 0.00134154 5e-05 0.00495483 -0.0174838 -0.0585388 0 0 -5.1365e-09 
163 1 -0.000200145 0.000358472 0.00121749 5e-05 -0.00551639 -0.00938171 -0.0933117 0 0 -5.1365e-09 
1 1 0.000214719 0.000300277 0.00122238 5e-05 -0.0277019 -0.0181741 -0.0864036 0 0 -5.1365e-09 
380 1 0.000349507 0.000270085 0.00125876 5e-05 -0.00670152 0.00617458 -0.0925071 0 0 -5.1365e-09 
539 1 0.000401977 0.000355633 0.00127768 5e-05 -0.0322013 -0.00753282 -0.0589448 0 0 -5.1365e-09 
565 1 -0.00034123 0.000361143 0.00124005 5e-05 0.028389 -0.0371411 -0.041403 0 0 -5.1365e-09 
561 1 -0.000302848 0.000450939 0.00131887 5e-05 0.00951494 -0.0155996 -0.0652426 0 0 -5.1365e-09 
125 1 -0.00020946 0.000461884 0.00126232 5e-05 0.00364031 -0.00133247 -0.0967043 0 0 -5.1365e-09 
187 1 0.000292711 0.000411585 0.00119511 5e-05 -0.00677492 -0.017112 -0.076309 0 0 -5.1365e-09 
260 1 0.00021647 0.00046531 0.00129312 5e-05 -0.0227166 -0.0234921 -0.0574568 0 0 -5.1365e-09 
556 1 -0.000161187 -0.000527507 0.00134867 5e-05 0.00209605 0.0149682 -0.0543799 0 0 -5.1365e-09 
375 1 -1.64616e-05 -0.000577927 0.00150001 5e-05 -0.00680271 -0.00767775 -0.0284209 0 0 -5.1365e-09 
2 1 -0.000351833 -0.000381092 0.00142874 5e-05 -0.0217386 0.0172856 -0.0522572 0 0 -5.1365e-09 
533 1 -0.000230263 -0.000522624 0.00148355 5e-05 0.012389 0.00710743 -0.0536961 0 0 -5.1365e-09 
85 1 -0.00021728 -0.000437493 0.00133804 5e-05 0.00515256 0.0226466 -0.0711075 0 0 -5.1365e-09 
284 1 -0.000126369 -0.000532134 0.00152826 5e-05 -0.00133839 -0.0020407 -0.0252136 0 0 -5.1365e-09 
452 1 0.000148289 -0.000536896 0.00140972 5e-05 -0.0059067 -0.00158647 -0.0616086 0 0 -5.1365e-09 
478 1 0.000217287 -0.000446652 0.00137749 5e-05 -0.00780726 0.00518716 -0.0663269 0 0 -5.1365e-09 
361 1 0.000291117 -0.00038102 0.0014567 5e-05 -0.00939901 0.011562 -0.0427181 0 0 -5.1365e-09 
513 1 0.000328038 -0.000479707 0.00147745 5e-05 -0.0105833 0.00454954 -0.0347385 0 0 -5.1365e-09 
341 1 0.000242643 -0.000534034 0.00148517 5e-05 -0.0170019 0.0249106 -0.02826 0 0 -5.1365e-09 
102 1 0.000437391 -0.000398262 0.00153326 5e-05 -0.00206018 0.00999736 -0.00408017 2.42702e-07 5.54277e-07 -1.37616e-06 
531 1 -0.000393099 -0.000246673 0.0014357 5e-05 0.0290273 0.0215774 -0.0427979 0 0 -5.1365e-09 
271 1 -0.000274919 -0.000250468 0.00137552 5e-05 -0.00483217 0.0292166 -0.0449321 0 0 -5.1365e-09 
167 1 -0.000242222 -0.000365971 0.00142223 5e-05 -0.00620736 0.0175022 -0.0706336 0 0 -5.1365e-09 
474 1 0.000490648 -0.000273529 0.00148774 5e-05 -0.0174902 0.0119701 -0.0272598 0 0 -5.1365e-09 
38 1 -0.000469472 -0.000233343 0.00134119 5e-05 0.0221122 -0.0129134 -0.0675911 0 0 -5.1365e-09 
171 1 -0.000470329 -9.38597e-05 0.00141075 5e-05 0.0228838 -0.00557424 -0.0509929 0 0 -5.1365e-09 
309 1 -0.000212666 -0.000198522 0.00148541 5e-05 -0.0186893 -0.00288666 -0.0335282 0 0 -5.1365e-09 
519 1 0.000526873 -0.000177869 0.00142379 5e-05 -0.00310994 0.0139043 -0.0544026 0 0 -5.1365e-09 
275 1 -0.0005495 -2.58763e-05 0.00140677 5e-05 0.0207679 -0.00538164 -0.0577419 0 0 -5.1365e-09 
220 1 -0.000550165 6.4148e-05 0.00145537 5e-05 0.0148932 -0.00326246 -0.0593351 0 0 -5.1365e-09 
364 1 -0.000433993 -2.57001e-05 0.00133787 5e-05 -0.00400483 -0.00906728 -0.0747567 0 0 -5.1365e-09 
310 1 -0.000474965 -2.53043e-05 0.00150559 5e-05 -0.0144407 -0.0219697 -0.0451903 0 0 -5.1365e-09 
472 1 -0.000340182 -2.03602e-06 0.00136767 5e-05 -0.000682232 0.011665 -0.063076 0 0 -5.1365e-09 
557 1 -0.000372729 -7.42557e-05 0.0014861 5e-05 -0.00636186 -0.0165484 -0.0545033 0 0 -5.1365e-09 
241 1 -0.000234781 -6.54309e-05 0.00150139 5e-05 -0.0123395 -0.010671 -0.0261634 0 0 -5.1365e-09 
62 1 0.000526717 -6.50864e-05 0.00145375 5e-05 -0.0123576 0.0052218 -0.0559903 0 0 -5.1365e-09 
386 1 0.000407444 -4.27567e-05 0.00141943 5e-05 -0.00178107 0.00552417 -0.0509006 0 0 -5.1365e-09 
190 1 0.000466501 6.06299e-05 0.00138359 5e-05 -0.0121456 0.0253486 -0.0678048 0 0 -5.1365e-09 
264 1 0.00056209 2.48228e-05 0.00141496 5e-05 -0.0170014 0.00842645 -0.0468477 0 0 -5.1365e-09 
19 1 -0.000545483 0.000200026 0.00147354 5e-05 0.00848481 -0.0152486 -0.0349971 0 0 -5.1365e-09 
245 1 -0.000506708 9.78615e-05 0.0013633 5e-05 0.0139643 -0.0113578 -0.0567119 0 0 -5.1365e-09 
129 1 -0.000456142 8.07141e-05 0.00151694 5e-05 -0.000798317 -0.0196267 -0.0261586 0 0 -5.1365e-09 
158 1 0.000176002 8.99575e-05 0.00152066 5e-05 0.00823677 0.00246727 -0.0282394 0 0 -5.1365e-09 
524 1 0.000193725 0.000188036 0.00150141 5e-05 0.0156728 -0.000779341 -0.0305369 0 0 -5.1365e-09 
349 1 0.000331816 0.000199156 0.00133325 5e-05 -0.000117011 0.000671587 -0.0772813 0 0 -5.1365e-09 
216 1 0.000279704 0.000110114 0.00149728 5e-05 0.0165514 -0.0173248 -0.0501584 0 0 -5.1365e-09 
443 1 0.000370284 9.34301e-05 0.0013297 5e-05 -0.0271213 0.00179942 -0.0867612 0 0 -5.1365e-09 
146 1 0.000413517 0.000168688 0.00138561 5e-05 -0.0209631 -0.00689104 -0.0572035 0 0 -5.1365e-09 
563 1 -0.000503374 0.000294849 0.00150431 5e-05 0.00251589 -0.00653994 -0.0362421 0 0 -5.1365e-09 
303 1 0.000197114 0.00028812 0.00139017 5e-05 -0.0193518 0.0090856 -0.0684564 0 0 -5.1365e-09 
415 1 0.00030258 0.000351007 0.00138761 5e-05 0.00760372 -0.00324223 -0.0798183 0 0 -5.1365e-09 
221 1 0.000468321 0.000275352 0.00136809 5e-05 0.002713 0.00330393 -0.0778333 0 0 -5.1365e-09 
147 1 0.000414249 0.000344712 0.00147363 5e-05 0.0183926 0.0156508 -0.0548998 0 0 -5.1365e-09 
505 1 -0.000441924 0.000392884 0.00148318 5e-05 -0.000626767 -0.000375669 0.00140807 2.02731e-08 1.22101e-08 -4.54296e-08 
39 1 -0.000308058 0.000401726 0.00140945 5e-05 0.00353621 -0.00099786 -0.0617461 0 0 -5.1365e-09 
403 1 -0.0002879 0.000495218 0.00145561 5e-05 -0.00252601 -0.00873703 -0.0543724 0 0 -5.1365e-09 
385 1 -0.00037919 0.000462998 0.00152942 5e-05 0.00545184 -0.0256379 -0.0129589 0 0 -5.1365e-09 
354 1 -0.000191588 0.000427634 0.00149288 5e-05 0.00206771 0.00170483 -0.0419039 0 0 -5.1365e-09 
535 1 -0.000128126 0.000504139 0.00153773 5e-05 -0.0162635 0.00929325 0.00270525 0 0 -5.1365e-09 
498 1 0.000213718 0.000398478 0.0014672 5e-05 0.0105914 0.00301129 -0.0387704 0 0 -5.1365e-09 
177 1 0.000302139 0.000454764 0.00142522 5e-05 0.0190555 -0.00553433 -0.0686851 0 0 -5.1365e-09 
439 1 -0.000188892 0.000541159 0.00142157 5e-05 -0.00395652 -0.0080032 -0.0561746 0 0 -5.1365e-09 
119 1 -6.26166e-05 0.000591596 0.00152621 5e-05 0.00665167 -0.00369262 0.000314321 0 0 -5.1365e-09 
525 1 3.18439e-05 0.000568954 0.00145746 5e-05 0.00192583 -0.0127879 -0.0379943 0 0 -5.1365e-09 
79 1 0.000138434 0.00053966 0.00142586 5e-05 0.000577922 -0.0181096 -0.0332476 -4.10441e-07 6.3842e-08 -9.80135e-08 
517 1 0.000233908 0.00053159 0.00145442 5e-05 -0.0101626 -0.01903 -0.0264351 4.10441e-07 -6.3842e-08 8.77405e-08 
206 1 -0.000202157 -0.000558083 0.00159793 5e-05 -0.0346254 -0.00704078 -0.0211828 0 0 -5.1365e-09 
200 1 -7.93375e-05 -0.000603606 0.00158936 5e-05 -0.00373513 0.0051825 -0.0150807 0 0 -5.1365e-09 
398 1 5.99664e-05 -0.000615709 0.0016253 5e-05 0.00121397 0.0083007 -0.00746432 0 0 -5.1365e-09 
569 1 0.000109021 -0.000584845 0.00153949 5e-05 0.0172981 -0.0110449 0.00334627 0 0 -5.1365e-09 
288 1 -0.000245664 -0.000418599 0.00152671 5e-05 -0.000555636 0.00761874 -0.0433741 0 0 -5.1365e-09 
552 1 -9.07209e-05 -0.000469173 0.0016017 5e-05 -0.00108427 0.0159664 -0.0347665 0 0 -5.1365e-09 
377 1 -0.000185183 -0.000409035 0.00161055 5e-05 -0.042953 -0.00985829 -0.0108761 0 0 -5.1365e-09 
257 1 7.78266e-05 -0.000513379 0.00160914 5e-05 -0.00382136 0.00575264 -0.012494 0 0 -5.1365e-09 
523 1 2.56879e-05 -0.000441812 0.00155656 5e-05 0.0116034 0.0146889 0.00495602 0 0 -5.1365e-09 
4 1 -2.76727e-05 -0.000390525 0.00163537 5e-05 -0.00868842 0.0121325 -0.00424195 0 0 -5.1365e-09 
268 1 -2.90829e-07 -0.000477048 0.00168422 5e-05 0.00278418 0.0020362 -0.00662365 0 0 -5.1365e-09 