ITEM: TIMESTEP
11000
ITEM: NUMBER OF ATOMS
571
ITEM: BOX BOUNDS ff ff ff
-0.001 0.001
-0.001 0.001
0 0.004
ITEM: ATOMS id type x y z radius vx vy vz fx fy fz 
473 1 -0.000430536 -0.000429934 0.00158655 5e-05 0.00741024 -0.010321 -0.0886558 0 0 -5.1365e-09 
453 1 -0.00030948 -0.000432109 0.00145701 5e-05 0 0 -0.107905 0 0 -5.1365e-09 
553 1 -6.91095e-05 -0.000476071 0.00158062 5e-05 0.0194753 -0.0487999 -0.000830883 -2.78146e-06 -7.12736e-07 -1.34174e-06 
196 1 -0.000199085 -0.000407398 0.0015637 5e-05 -0.0191448 -0.00100143 0.0639194 0 0 -5.1365e-09 
317 1 -9.42394e-05 -0.000390196 0.00164583 5e-05 -0.0120963 0.0443802 -0.0632958 0 0 -5.1365e-09 
401 1 0.000114406 -0.000446657 0.00152201 5e-05 0.04621 -0.0241195 -0.0387793 0 0 -5.1365e-09 
107 1 2.99237e-05 -0.000472525 0.00159271 5e-05 0.0406051 -0.0761459 -0.0657088 2.78146e-06 7.12736e-07 1.33147e-06 
291 1 0.000175025 -0.000456167 0.00163626 5e-05 0.00776838 -0.0280705 -0.100631 0 0 -5.1365e-09 
73 1 0.000312361 -0.000428361 0.00150095 5e-05 0.0119154 -0.000380517 -0.124159 0 0 -5.1365e-09 
528 1 0.000287081 -0.000439763 0.00159773 5e-05 -0.0115555 -0.0104619 -0.136571 0 0 -5.1365e-09 
558 1 0.000394048 -0.000402427 0.00157649 5e-05 0.010256 -0.0103305 -0.0992462 0 0 -5.1365e-09 
379 1 -0.000440451 -0.000376785 0.00147308 5e-05 0.0645018 0.0178188 -0.0376503 3.03445e-06 2.00842e-06 2.10019e-06 
551 1 -0.000252177 -0.000340599 0.00146314 5e-05 0 0 -0.107905 0 0 -5.1365e-09 
242 1 -0.000352624 -0.000330011 0.00149621 5e-05 0.119582 -0.0273214 -0.07546 0 0 -5.1365e-09 
489 1 -0.000292353 -0.000301112 0.00157384 5e-05 -0.0106895 -0.0277691 -0.0584289 0 0 -5.1365e-09 
538 1 -0.000104836 -0.000349929 0.00155018 5e-05 0.0248877 -0.0251064 0.0137561 0 0 -5.1365e-09 
305 1 -0.000172581 -0.000256133 0.00155391 5e-05 0.0649407 -0.00679469 -0.0227434 0 0 -5.1365e-09 
549 1 -0.000156527 -0.00029533 0.00164771 5e-05 0.0423025 0.0470016 -0.0358924 0 0 -5.1365e-09 
70 1 7.68165e-05 -0.000306693 0.00155616 5e-05 0.0167501 -0.00527896 0.0477728 0 0 -5.1365e-09 
188 1 1.78742e-06 -0.000372746 0.00155315 5e-05 0.048475 0.00265025 -0.0292282 9.69953e-07 -6.71198e-07 -2.0474e-06 
22 1 6.93598e-05 -0.000255372 0.00165577 5e-05 -0.0263508 -0.00982427 0.0456588 0 0 -5.1365e-09 
328 1 0.00020167 -0.000365316 0.00149254 5e-05 0.00966212 -0.0210341 -0.108234 0 0 -5.1365e-09 
250 1 0.000183734 -0.000271094 0.00153764 5e-05 0.00147561 -0.0092427 -0.0886611 0 0 -5.1365e-09 
526 1 0.000291034 -0.000269254 0.00147519 5e-05 0.00789704 -0.0100781 -0.120277 0 0 -5.1365e-09 
322 1 0.000322341 -0.000337268 0.00154862 5e-05 -0.00380349 -0.00632583 -0.110044 0 0 -5.1365e-09 
199 1 0.000409985 -0.000380998 0.0014784 5e-05 0 0 -0.107905 0 0 -5.1365e-09 
24 1 0.000440408 -0.000258484 0.00151236 5e-05 0.0339456 -0.0148455 -0.130397 0 0 -5.1365e-09 
449 1 -0.000449692 -0.000233479 0.00157384 5e-05 -0.00936441 -0.0420527 0.0198869 0 0 -5.1365e-09 
168 1 -0.000428077 -0.000133112 0.00162943 5e-05 -0.0552202 0.00383906 0.0201138 0 0 -5.1365e-09 
342 1 -0.000352061 -0.000151126 0.00155645 5e-05 0.0434489 -0.0271136 0.0110609 0 0 -5.1365e-09 
43 1 -0.000247622 -0.000178191 0.00156373 5e-05 0.0260517 0.00645177 -0.0308451 0 0 -5.1365e-09 
80 1 -0.000136462 -8.92792e-05 0.00154994 5e-05 -0.0480536 0.024675 -0.0148024 1.24371e-06 -8.79874e-07 3.04182e-06 
414 1 6.54021e-05 -0.000178043 0.00155231 5e-05 0.017154 -0.0187005 -0.0425915 0 0 -5.1365e-09 
131 1 -4.5944e-05 -0.000225044 0.00154972 5e-05 0.00082849 -0.0219505 0.00480612 3.29764e-07 -3.64868e-07 1.29105e-05 
251 1 0.000165856 -0.000110783 0.00153841 5e-05 -0.00182816 -0.0367198 -0.047057 0 0 -5.1365e-09 
318 1 0.000359183 -0.000178725 0.00145958 5e-05 0.0125187 -0.0145141 -0.115434 0 0 -5.1365e-09 
36 1 0.000255856 -0.000161988 0.00153274 5e-05 0.00284809 0.011216 -0.0665357 0 0 -5.1365e-09 
508 1 0.000338403 -0.000215457 0.0015785 5e-05 0.0172894 -0.00135682 -0.104665 0 0 -5.1365e-09 
490 1 0.000438127 -0.000105777 0.00145669 5e-05 0.0160006 0.00839223 -0.110592 0 0 -5.1365e-09 
350 1 0.000396404 -0.000119568 0.00156384 5e-05 0.0218156 0.0217495 -0.10886 0 0 -5.1365e-09 
468 1 -0.00044862 4.76923e-05 0.00147069 5e-05 0 0 -0.107905 0 0 -5.1365e-09 
239 1 -0.000409733 -5.63734e-05 0.00155347 5e-05 -0.000758137 0.0294744 -0.0924369 0 0 -5.1365e-09 
285 1 -0.000333533 2.99609e-05 0.00159447 5e-05 0.0188293 0.0177554 0.063343 0 0 -5.1365e-09 
92 1 -0.000258493 -6.94481e-05 0.0015593 5e-05 0.000682564 -0.00253379 0.0952851 0 0 -5.1365e-09 
40 1 -9.28543e-05 1.06739e-06 0.00155205 5e-05 -0.0285832 -0.0248191 -0.011151 0 0 -5.1365e-09 
153 1 -0.00018886 6.0477e-05 0.00155073 5e-05 -0.00998397 0.0488319 0.0782037 0 0 -5.1365e-09 
564 1 -0.000140631 3.58614e-05 0.00164029 5e-05 0.0163487 0.00772997 0.00370167 0 0 -5.1365e-09 
446 1 7.47957e-06 2.02815e-05 0.00155524 5e-05 -0.0026948 -0.00150566 0.00609943 0 0 -5.1365e-09 
405 1 2.60618e-05 -8.03578e-05 0.00155035 5e-05 -0.0109336 -0.0325256 0.0384865 -1.68822e-06 -1.74987e-06 -7.7203e-06 
169 1 -7.604e-06 3.91925e-05 0.00165423 5e-05 0.00607565 0.0083342 -0.0124679 0 0 -5.1365e-09 
91 1 0.000129688 -1.39098e-05 0.00155333 5e-05 0.0395589 -0.0513656 -0.0560589 0 0 -5.1365e-09 
256 1 0.000221908 3.82068e-05 0.00155574 5e-05 -0.0504978 0.0583991 -0.00731205 0 0 -5.1365e-09 
132 1 0.000317873 -4.16577e-05 0.00155466 5e-05 0.0179266 -0.0513827 0.0430764 0 0 -5.1365e-09 
186 1 0.000438566 -1.64454e-05 0.00150925 5e-05 0 0 -0.107905 0 0 -5.1365e-09 
243 1 -0.000449149 0.000154198 0.00150514 5e-05 0 0 -0.107905 0 0 -5.1365e-09 
209 1 -0.000257211 0.000211538 0.00146457 5e-05 -0.00335807 -0.0207371 -0.13269 0 0 -5.1365e-09 
182 1 -0.000309313 0.000148186 0.00152931 5e-05 -0.00581542 -0.0160421 -0.101806 0 0 -5.1365e-09 
353 1 -0.000157273 0.000204909 0.00146226 5e-05 0.000644034 -0.000277811 -0.108209 0 0 -5.1365e-09 
472 1 -9.55651e-05 0.000106806 0.00156397 5e-05 -0.0175284 -0.032543 -0.0529769 0 0 -5.1365e-09 
235 1 -0.000202941 0.000177049 0.00156353 5e-05 0 0 -0.107905 0 0 -5.1365e-09 
192 1 -5.84796e-06 0.000166648 0.00157282 5e-05 0.0376504 -0.0395571 0.0042935 0 0 -5.1365e-09 
406 1 7.4037e-05 0.000107423 0.00155539 5e-05 0.00337128 -0.00269009 0.0134985 0 0 -5.1365e-09 
521 1 0.000134743 0.000197597 0.00155044 5e-05 -0.0159215 -5.87179e-05 -0.00147024 0 0 -5.1365e-09 
161 1 0.000177055 0.00012083 0.00160666 5e-05 0.0629285 -0.000596355 0.00521033 0 0 -5.1365e-09 
134 1 0.000262578 0.000196123 0.00156633 5e-05 -0.00995139 0.0328633 0.0398522 0 0 -5.1365e-09 
497 1 0.000314987 8.06777e-05 0.00157704 5e-05 0.0163477 -0.00414876 -0.0434319 0 0 -5.1365e-09 
413 1 0.000366992 0.000190542 0.00155067 5e-05 -0.017312 -0.00695049 -0.0800308 0 0 -5.1365e-09 
84 1 0.000422002 9.23809e-05 0.00155195 5e-05 0.0586804 0.00249149 -0.0352184 0 0 -5.1365e-09 
471 1 -0.000442295 0.000347091 0.00146373 5e-05 0 0 -0.107905 0 0 -5.1365e-09 
509 1 -0.00044718 0.000245472 0.00155559 5e-05 0 0 -0.107905 0 0 -5.1365e-09 
252 1 -0.000360369 0.000275219 0.00150567 5e-05 0 0 -0.107905 0 0 -5.1365e-09 
308 1 -0.000268724 0.00031641 0.00149401 5e-05 -0.0393573 -0.00221835 -0.106037 0 0 -5.1365e-09 
475 1 -0.000137875 0.000298994 0.00152108 5e-05 -0.0406658 -0.0561182 -0.0560083 0 0 -5.1365e-09 
157 1 -0.000207583 0.000377687 0.00156423 5e-05 -0.102799 0.0608925 -0.0446157 0 0 -5.1365e-09 
202 1 -9.40042e-05 0.000254373 0.00160886 5e-05 -0.039811 0.0393414 -0.0272433 0 0 -5.1365e-09 
435 1 -3.25041e-06 0.000350956 0.00155075 5e-05 -0.00754914 0.0180594 0.00379998 0 0 -5.1365e-09 
273 1 5.15049e-05 0.0002646 0.00156616 5e-05 -0.0430967 -0.0581196 -0.0705796 0 0 -5.1365e-09 
529 1 0.000231814 0.000358583 0.00148299 5e-05 -0.00957645 0.00921112 -0.128312 0 0 -5.1365e-09 
174 1 0.000110142 0.000351897 0.0015532 5e-05 -0.0193049 0.010904 0.0212997 0 0 -5.1365e-09 
90 1 0.000199427 0.000277996 0.0015577 5e-05 0.00370116 0.0357083 -0.0578744 0 0 -5.1365e-09 
57 1 0.000337303 0.000367122 0.0015411 5e-05 0.0216834 0.00847253 -0.0988212 0 0 -5.1365e-09 
290 1 0.000408824 0.000282505 0.00155377 5e-05 -0.00446943 0.0280741 -0.0781438 0 0 -5.1365e-09 
10 1 -0.000434992 0.000414295 0.00157489 5e-05 -0.0374625 -0.00711654 -0.131022 0 0 -5.1365e-09 
128 1 -0.00035203 0.00043902 0.00150956 5e-05 0 0 -0.107905 0 0 -5.1365e-09 
384 1 -0.000127387 0.000426475 0.00151063 5e-05 -0.0329339 0.0428966 -0.0776419 0 0 -5.1365e-09 
425 1 -0.000226367 0.000448181 0.00149069 5e-05 0 0 -0.107905 0 0 -5.1365e-09 
560 1 -0.000122477 0.000458368 0.00161037 5e-05 -0.0436098 0.0315175 -0.0499327 0 0 -5.1365e-09 
548 1 7.06191e-05 0.000463521 0.00155004 5e-05 -0.0265677 0.0362844 -0.0554205 0 0 -5.1365e-09 
173 1 -2.7032e-06 0.000434242 0.00161605 5e-05 -0.00732189 0.0797922 -0.01084 0 0 -5.1365e-09 
60 1 0.000187686 0.000485045 0.00159485 5e-05 -0.057061 0.0644653 -0.0419688 0 0 -5.1365e-09 
422 1 0.000353377 0.000449684 0.00148572 5e-05 -0.0227952 0.00152578 -0.104647 0 0 -5.1365e-09 
493 1 0.000443676 0.000389516 0.001487 5e-05 -0.0111921 -0.0228145 -0.0771199 0 0 -5.1365e-09 
89 1 -0.000302222 -0.000443821 0.00159937 5e-05 0 0 -0.107905 0 0 -5.1365e-09 
42 1 -0.000211727 -0.000384485 0.00169365 5e-05 0.0029141 0.00146246 -0.0429283 0 0 -5.1365e-09 
545 1 7.12235e-05 -0.000450228 0.00168184 5e-05 0.046422 -0.0215122 -0.0575825 0 0 -5.1365e-09 
298 1 -2.36834e-05 -0.000453115 0.00171691 5e-05 0.0157291 -0.0217319 -0.0690539 0 0 -5.1365e-09 
296 1 0.000230006 -0.000449731 0.00172667 5e-05 0.0761913 0.00226355 0.0427111 0 0 -5.1365e-09 
402 1 0.000343512 -0.000420596 0.00168241 5e-05 -0.0396224 0.0378396 -0.0741621 0 0 -5.1365e-09 
331 1 0.000444641 -0.000433147 0.00166366 5e-05 -0.00958378 0.0266167 -0.0550119 0 0 -5.1365e-09 
227 1 -0.000391933 -0.000339005 0.001623 5e-05 0.00609879 0.0241536 -0.110151 0 0 -5.1365e-09 
113 1 -0.000430498 -0.000378246 0.00172842 5e-05 0 0 -0.107905 0 0 -5.1365e-09 
29 1 -0.000355369 -0.000236002 0.0016317 5e-05 -0.0416739 0.00743689 -0.106314 0 0 -5.1365e-09 
99 1 -0.000258471 -0.000266398 0.001671 5e-05 0.00519102 -0.0211816 -0.0756707 0 0 -5.1365e-09 
335 1 -0.00030675 -0.000355399 0.00167419 5e-05 -0.00980465 0.00366839 -0.0952815 0 0 -5.1365e-09 
382 1 -3.85612e-05 -0.000305565 0.00161507 5e-05 0.040171 -0.0311728 0.0395484 -9.69953e-07 6.71198e-07 2.03713e-06 
3 1 -4.75225e-05 -0.000309366 0.00172365 5e-05 0.00860913 -0.0554739 -0.0677508 0 0 -5.1365e-09 
156 1 0.000106839 -0.000353678 0.00164082 5e-05 0 0 -0.107905 0 0 -5.1365e-09 
541 1 0.000176455 -0.000229908 0.00169757 5e-05 0.0634444 0.0116717 -0.049147 0 0 -5.1365e-09 
23 1 0.000244402 -0.000340648 0.00163478 5e-05 0 0 -0.107905 0 0 -5.1365e-09 
381 1 0.000295107 -0.000265469 0.00171044 5e-05 -0.00255069 0.0169244 -0.0928939 0 0 -5.1365e-09 
222 1 0.000440403 -0.000333613 0.00163791 5e-05 -0.0085467 0.0413288 -0.109294 0 0 -5.1365e-09 
337 1 -0.000451658 -0.000199375 0.00171561 5e-05 -0.0371228 0.0190167 -0.0911814 0 0 -5.1365e-09 
281 1 -0.000302824 -0.000137083 0.00164425 5e-05 0.0389679 0.00425315 -0.0316287 0 0 -5.1365e-09 
429 1 -0.000360792 -0.000130627 0.00172995 5e-05 0.00688464 -0.0475966 -0.0961836 0 0 -5.1365e-09 
400 1 -0.000292183 -0.000218639 0.00175772 5e-05 -0.0267792 0.0148231 -0.0542192 0 0 -5.1365e-09 
81 1 -0.000170237 -0.000180834 0.001629 5e-05 0 0 -0.107905 0 0 -5.1365e-09 
427 1 -7.84963e-05 -0.000220653 0.00165929 5e-05 0.00235407 0.020339 -0.043125 0 0 -5.1365e-09 
343 1 -0.000223893 -0.000124341 0.00171878 5e-05 -0.0203486 -0.00855517 -0.094002 0 0 -5.1365e-09 
534 1 -0.000172137 -0.000216602 0.00173948 5e-05 0.00275618 -0.0167966 -0.0948105 -8.13599e-07 1.60866e-06 -2.66867e-07 
555 1 -8.33816e-05 -0.000124702 0.00162731 5e-05 -0.0409567 -0.0247968 -0.0554506 0 0 -5.1365e-09 
376 1 2.06382e-05 -0.00015308 0.00165118 5e-05 -0.0224362 0.0315437 -0.0908935 0 0 -5.1365e-09 
124 1 -2.91921e-05 -8.41961e-05 0.0017054 5e-05 0.0429875 -0.0250868 -0.0435492 0 0 -5.1365e-09 
25 1 0.000179917 -0.000128644 0.00163772 5e-05 0.00668599 -0.0189887 0.00194986 0 0 -5.1365e-09 
170 1 0.000175233 -0.000104655 0.00174632 5e-05 0.011309 0.00652247 0.0239784 0 0 -5.1365e-09 
293 1 9.42682e-05 -0.000169191 0.00172668 5e-05 0.00790982 -0.0159697 -0.10781 0 0 -5.1365e-09 
299 1 0.000253184 -0.000209532 0.00163477 5e-05 0.0245918 -0.0316482 -0.0370214 0 0 -5.1365e-09 
86 1 0.000303092 -0.000121685 0.00167567 5e-05 0.047911 -0.0899463 -0.058518 0 0 -5.1365e-09 
37 1 0.000405236 -0.000193208 0.00166174 5e-05 0 0 -0.107905 0 0 -5.1365e-09 
50 1 0.000412795 -8.12729e-05 0.00168611 5e-05 0.00822307 -0.02139 -0.100709 0 0 -5.1365e-09 
26 1 -0.000437988 2.08228e-05 0.00164189 5e-05 -0.0224115 0.0434862 -0.0694695 0 0 -5.1365e-09 
387 1 -0.000446067 -4.5647e-05 0.00171739 5e-05 0 0 -0.107905 0 0 -5.1365e-09 
321 1 -0.000240242 5.67534e-05 0.00163711 5e-05 -0.0617235 0.0288904 -0.0629449 0 0 -5.1365e-09 
30 1 -0.000301474 -2.7768e-05 0.00169331 5e-05 -0.0460086 0.00874603 -0.0575706 0 0 -5.1365e-09 
455 1 -0.000201962 -5.64347e-05 0.00164131 5e-05 -0.0120301 0.00409684 -0.104363 0 0 -5.1365e-09 
142 1 -0.000198745 2.59609e-05 0.00173869 5e-05 0.00702895 -0.00583897 -0.0417496 0 0 -5.1365e-09 
98 1 5.31759e-05 -5.09035e-05 0.0016415 5e-05 0.0168294 -0.0155924 -0.0155376 1.414e-07 5.69678e-07 4.97421e-06 
359 1 -8.35317e-05 5.54825e-08 0.00171493 5e-05 -0.00682569 -0.030095 -0.0537246 0 0 -5.1365e-09 
158 1 0.000101714 4.89478e-05 0.00163635 5e-05 -0.00667059 -0.0102211 -0.0966303 0 0 -5.1365e-09 
287 1 0.000234228 5.72332e-05 0.00167073 5e-05 0.0462307 -0.0308177 -0.0253833 0 0 -5.1365e-09 
261 1 0.000219124 3.83949e-06 0.00176573 5e-05 -0.0064835 -0.000704819 -0.0476765 0 0 -5.1365e-09 
454 1 0.000103364 -3.14349e-05 0.00172557 5e-05 0.0227375 -0.000150983 -0.0782367 1.54682e-06 1.18019e-06 2.73069e-06 
524 1 0.000130858 7.89089e-05 0.00174167 5e-05 0.00760096 0.0445395 0.00704361 0 0 -5.1365e-09 
459 1 0.000249965 -3.46236e-05 0.00163091 5e-05 0.0235589 -0.04708 0.0126235 0 0 -5.1365e-09 
441 1 0.000373118 2.92507e-06 0.00164863 5e-05 -0.0131674 -0.00633763 -0.104942 0 0 -5.1365e-09 
367 1 -0.00039896 0.000116387 0.00162198 5e-05 -0.0244408 0.00910335 -0.112881 0 0 -5.1365e-09 
463 1 -0.000441886 0.000218526 0.00166865 5e-05 0 0 -0.107905 0 0 -5.1365e-09 
326 1 -0.000359183 0.000217927 0.00159976 5e-05 0 0 -0.107905 0 0 -5.1365e-09 
485 1 -0.0002478 0.000221262 0.00165067 5e-05 0 0 -0.107905 0 0 -5.1365e-09 
49 1 -0.000323488 9.23165e-05 0.00168336 5e-05 -0.0384935 0.015951 -0.0553726 0 0 -5.1365e-09 
213 1 -0.000175018 0.00014831 0.001705 5e-05 -0.0459036 0.0211804 -0.0687623 -6.16594e-06 2.43504e-06 4.75388e-06 
499 1 7.63908e-05 0.000181706 0.00163288 5e-05 0.00418732 0.0872527 0.0236717 0 0 -5.1365e-09 
364 1 -8.6242e-05 0.000134698 0.00166205 5e-05 0.00775114 0.0307857 0.0349156 6.16594e-06 -2.43504e-06 -4.76416e-06 
280 1 -5.60785e-07 0.000170511 0.00170316 5e-05 -0.0331891 0.0305591 -0.0484554 0 0 -5.1365e-09 
66 1 0.000156735 0.00019022 0.00170709 5e-05 -0.0110187 -0.0469062 -0.0736651 0 0 -5.1365e-09 
11 1 0.000387566 0.000107635 0.00164775 5e-05 0.0440446 -0.0210778 0.0406251 0 0 -5.1365e-09 
225 1 0.000273141 0.000154299 0.00165682 5e-05 -0.0302919 0.00552257 0.00549359 0 0 -5.1365e-09 
346 1 0.000321136 0.000125502 0.00174725 5e-05 0.0330472 -0.0571538 -0.022396 1.67261e-06 -1.88543e-06 -2.45035e-06 
282 1 0.000390718 0.000205048 0.00167265 5e-05 0.0104362 0.0373985 -0.0766533 0 0 -5.1365e-09 
482 1 -0.000444796 0.000316459 0.00163627 5e-05 0 0 -0.107905 0 0 -5.1365e-09 
123 1 -0.000409038 0.000292249 0.00173567 5e-05 0 0 -0.107905 0 0 -5.1365e-09 
183 1 -0.000312053 0.000329432 0.00166579 5e-05 0 0 -0.107905 0 0 -5.1365e-09 
115 1 -0.000180977 0.000312177 0.00166015 5e-05 0 0 -0.107905 0 0 -5.1365e-09 
394 1 -5.20578e-06 0.000314791 0.00164664 5e-05 0.0234166 -0.0220596 -0.0160549 0 0 -5.1365e-09 
33 1 -7.07253e-05 0.000315481 0.00172232 5e-05 -0.0632141 0.00442915 -0.0384814 0 0 -5.1365e-09 
535 1 5.47719e-05 0.000298335 0.0017467 5e-05 -0.0227142 0.002815 -0.107842 0 0 -5.1365e-09 
358 1 0.000162416 0.000370461 0.00165583 5e-05 0.00372257 -0.000221237 -0.0569428 0 0 -5.1365e-09 
498 1 0.000197938 0.000273511 0.00166263 5e-05 -0.00656113 0.0343468 -0.0486546 0 0 -5.1365e-09 
181 1 9.84136e-05 0.000290152 0.00165268 5e-05 -0.00212903 0.00348668 -0.0557196 0 0 -5.1365e-09 
450 1 0.000331482 0.000305707 0.0016222 5e-05 0.00386637 -0.00716125 -0.083311 0 0 -5.1365e-09 
72 1 0.000291184 0.000254961 0.00170372 5e-05 0.00616535 -0.0173253 -0.113162 0 0 -5.1365e-09 
74 1 0.000441966 0.00030453 0.00165089 5e-05 0.0359415 0.0254914 -0.00992753 0 0 -5.1365e-09 
244 1 0.000435827 0.000312655 0.00175825 5e-05 0.0638172 0.00530655 -0.0183989 1.72176e-07 6.61977e-07 -2.82853e-06 
393 1 -0.000415518 0.000447415 0.00169984 5e-05 -0.0395551 0.00913531 -0.085328 0 0 -5.1365e-09 
537 1 -0.000332972 0.000445066 0.00163002 5e-05 0.0140042 0.0205886 -0.0911471 0 0 -5.1365e-09 
108 1 -0.000245523 0.000406343 0.00166041 5e-05 -0.0109536 -0.0487124 -0.09825 0 0 -5.1365e-09 
389 1 -0.000316173 0.000434127 0.00173167 5e-05 -0.0403736 0.0295798 -0.0652943 0 0 -5.1365e-09 
540 1 -0.000170016 0.000443849 0.00171764 5e-05 -0.0161388 0.0245727 -0.085181 0 0 -5.1365e-09 
223 1 -6.38771e-05 0.000428497 0.00169956 5e-05 -0.00510655 0.0102732 -0.0717635 0 0 -5.1365e-09 
88 1 3.24521e-05 0.000434052 0.00172886 5e-05 0.0332129 0.010259 -0.0879525 0 0 -5.1365e-09 
502 1 9.97655e-05 0.000453777 0.00164863 5e-05 0.0626335 0.0141001 -0.0562134 0 0 -5.1365e-09 
494 1 0.000155084 0.0004265 0.00174126 5e-05 0.00788689 0.0126395 -0.0877503 0 0 -5.1365e-09 
476 1 0.000309583 0.000475585 0.00164039 5e-05 0.00912445 0.0821709 -0.012525 0 0 -5.1365e-09 
228 1 0.000262338 0.000397625 0.0016853 5e-05 0.0565387 0.00404751 -0.0958171 0 0 -5.1365e-09 
391 1 0.000374809 0.000410114 0.00169864 5e-05 0 0 -0.107905 0 0 -5.1365e-09 
218 1 0.000443708 0.000395233 0.00159269 5e-05 0 0 -0.107905 0 0 -5.1365e-09 
67 1 -0.000401883 -0.000440655 0.00182458 5e-05 0 0 -0.107905 0 0 -5.1365e-09 
9 1 -0.00027798 -0.000428811 0.00176357 5e-05 -0.0585013 -0.0201121 -0.0575617 0 0 -5.1365e-09 
283 1 -0.000329053 -0.000387518 0.00189556 5e-05 0 0 -0.107905 0 0 -5.1365e-09 
207 1 -0.000150797 -0.000439051 0.00177938 5e-05 0 0 -0.107905 0 0 -5.1365e-09 
375 1 -0.000117505 -0.000393263 0.00187664 5e-05 -0.0234542 0.00894066 -0.0777947 0 0 -5.1365e-09 
569 1 -5.78624e-05 -0.000387302 0.00179592 5e-05 0.0249311 0.00621889 -0.0868415 0 0 -5.1365e-09 
373 1 3.27604e-05 -0.000396088 0.00184811 5e-05 0 0 -0.107905 0 0 -5.1365e-09 
118 1 0.00013468 -0.000438516 0.00177515 5e-05 0 0 -0.107905 0 0 -5.1365e-09 
513 1 0.000128491 -0.000445352 0.00188332 5e-05 0 0 -0.107905 0 0 -5.1365e-09 
159 1 0.000388976 -0.000409178 0.00179446 5e-05 0.0304876 0.012862 -0.0132064 0 0 -5.1365e-09 
316 1 0.000268672 -0.000425422 0.00183777 5e-05 0 0 -0.107905 0 0 -5.1365e-09 
51 1 -0.000438951 -0.000247477 0.00182752 5e-05 -0.00209242 0.0206579 -0.0556405 0 0 -5.1365e-09 
514 1 -0.000435135 -0.000347616 0.00186744 5e-05 -0.0043324 -0.0468997 -0.10477 0 0 -5.1365e-09 
523 1 -0.000255036 -0.000314763 0.0017632 5e-05 -0.00879912 0.0214957 -0.116746 0 0 -5.1365e-09 
68 1 -0.000349341 -0.000331592 0.00180683 5e-05 -0.0296373 -0.00679444 -0.0867909 0 0 -5.1365e-09 
284 1 -0.000234708 -0.000352586 0.00186974 5e-05 0.0128543 -0.0214846 -0.0612523 0 0 -5.1365e-09 
4 1 -0.000137393 -0.000305906 0.00176773 5e-05 0.00460581 -0.00842633 -0.106987 8.13599e-07 -1.60866e-06 2.56594e-07 
167 1 -0.000218078 -0.000238595 0.00183623 5e-05 0 0 -0.107905 0 0 -5.1365e-09 
536 1 4.70411e-05 -0.000379673 0.00174896 5e-05 0 0 -0.107905 0 0 -5.1365e-09 
554 1 3.11031e-05 -0.00024937 0.00175081 5e-05 0 0 -0.107905 0 0 -5.1365e-09 
203 1 3.53251e-05 -0.000291608 0.00184393 5e-05 0 0 -0.107905 0 0 -5.1365e-09 
236 1 0.000117461 -0.000302373 0.00175035 5e-05 -0.00156753 -0.0145856 -0.0843422 0 0 -5.1365e-09 
141 1 0.000215902 -0.000333261 0.00178358 5e-05 0 0 -0.107905 0 0 -5.1365e-09 
511 1 0.00013546 -0.000328557 0.0018556 5e-05 0 0 -0.107905 0 0 -5.1365e-09 
434 1 0.000326087 -0.000314962 0.00179168 5e-05 0.0233731 -0.0364923 -0.0638528 0 0 -5.1365e-09 
35 1 0.00038363 -0.000328853 0.00188199 5e-05 0 0 -0.107905 0 0 -5.1365e-09 
13 1 0.000424331 -0.000261447 0.00176203 5e-05 0 0 -0.107905 0 0 -5.1365e-09 
355 1 -0.000419593 -0.00012844 0.00181174 5e-05 -0.0624785 -0.0170399 -0.0402666 0 0 -5.1365e-09 
160 1 -0.000311729 -0.000135607 0.00184077 5e-05 -0.0272291 0.0711047 -0.0250223 0 0 -5.1365e-09 
309 1 -0.0001243 -0.000104787 0.00174661 5e-05 0 0 -0.107905 0 0 -5.1365e-09 
271 1 -0.000176601 -0.000138696 0.0018357 5e-05 0 0 -0.107905 0 0 -5.1365e-09 
246 1 -8.85427e-05 -0.00013792 0.00189292 5e-05 0 0 -0.107905 0 0 -5.1365e-09 
20 1 1.9643e-05 -0.000126494 0.00178816 5e-05 0.00349714 -0.0343144 -0.0462682 0 0 -5.1365e-09 
104 1 -7.53372e-05 -0.000192129 0.00180168 5e-05 0 0 -0.107905 0 0 -5.1365e-09 
279 1 3.47365e-05 -0.00018302 0.00188962 5e-05 0 0 -0.107905 0 0 -5.1365e-09 
77 1 0.000103519 -8.2938e-05 0.0018357 5e-05 0.0637885 -0.0188047 -0.0348605 0 0 -5.1365e-09 
78 1 0.000233403 -0.000191593 0.00180047 5e-05 0 0 -0.107905 0 0 -5.1365e-09 
121 1 0.000356982 -0.000195995 0.00181423 5e-05 0 0 -0.107905 0 0 -5.1365e-09 
330 1 0.000263574 -0.000114062 0.00187289 5e-05 0 0 -0.107905 0 0 -5.1365e-09 
136 1 0.000396497 -7.70583e-05 0.00178836 5e-05 0 0 -0.107905 0 0 -5.1365e-09 
447 1 0.000442486 -0.000132684 0.00189203 5e-05 0 0 -0.107905 0 0 -5.1365e-09 
45 1 -0.000403464 -1.74941e-05 0.00188284 5e-05 0 0 -0.107905 0 0 -5.1365e-09 
363 1 -0.000354558 -1.41478e-05 0.00178798 5e-05 -0.00308961 -0.0137233 -0.116725 0 0 -5.1365e-09 
204 1 -0.000231868 -9.34408e-06 0.00186052 5e-05 0 0 -0.107905 0 0 -5.1365e-09 
484 1 -0.000102459 -3.61808e-05 0.00181642 5e-05 0 0 -0.107905 0 0 -5.1365e-09 
32 1 -0.000101741 5.79788e-05 0.00188611 5e-05 -0.00446361 0.0213931 -0.0635183 0 0 -5.1365e-09 
559 1 1.01423e-05 -1.24141e-05 0.00176847 5e-05 0.0262709 0.0456526 -0.0399861 0 0 -5.1365e-09 
54 1 1.66638e-05 6.87801e-05 0.00189391 5e-05 0 0 -0.107905 0 0 -5.1365e-09 
440 1 -1.26775e-05 -7.02695e-05 0.00188682 5e-05 0 0 -0.107905 0 0 -5.1365e-09 
64 1 0.000100978 1.6788e-05 0.00182542 5e-05 0.00707753 -0.00365101 -0.0836306 0 0 -5.1365e-09 
82 1 0.000190283 7.70824e-05 0.00183398 5e-05 0.0461056 0.0317073 -0.0975428 0 0 -5.1365e-09 
504 1 0.000187658 -3.16553e-05 0.0018752 5e-05 0 0 -0.107905 0 0 -5.1365e-09 
17 1 0.000289221 -8.41841e-05 0.00176946 5e-05 0.0245246 -0.048224 -0.0765917 0 0 -5.1365e-09 
457 1 0.000340335 4.33825e-06 0.00181948 5e-05 0 0 -0.107905 0 0 -5.1365e-09 
266 1 0.000421671 2.17076e-05 0.0017457 5e-05 0 0 -0.107905 0 0 -5.1365e-09 
208 1 0.000445771 7.60356e-05 0.00183638 5e-05 0 0 -0.107905 0 0 -5.1365e-09 
438 1 -0.000437073 0.000108936 0.00178869 5e-05 0 0 -0.107905 0 0 -5.1365e-09 
311 1 -0.000318188 0.000222041 0.00175426 5e-05 0 0 -0.107905 0 0 -5.1365e-09 
383 1 -0.000256552 0.000124464 0.00176561 5e-05 0 0 -0.107905 0 0 -5.1365e-09 
75 1 -0.000347932 7.5316e-05 0.00183605 5e-05 -0.0335035 -3.76037e-05 -0.102387 0 0 -5.1365e-09 
324 1 -0.000252475 0.000139762 0.00187602 5e-05 0.00406648 0.0194456 -0.101745 0 0 -5.1365e-09 
421 1 -0.000360136 0.000196284 0.00185829 5e-05 0 0 -0.107905 0 0 -5.1365e-09 
428 1 -7.89326e-05 7.62373e-05 0.00178421 5e-05 0.0152462 0.0365209 -0.0306429 0 0 -5.1365e-09 
347 1 -0.000149792 0.000156126 0.00185039 5e-05 -0.00485274 0.0412328 -0.0680199 0 0 -5.1365e-09 
163 1 3.40104e-05 0.000207301 0.00179051 5e-05 -0.00304411 -0.00055337 -0.0820414 0 0 -5.1365e-09 
259 1 3.12691e-05 0.000100117 0.00177165 5e-05 -0.00365055 -0.010006 -0.0901877 0 0 -5.1365e-09 
481 1 -5.84289e-05 0.000173206 0.00181158 5e-05 0.00756367 0.00898087 -0.104078 0 0 -5.1365e-09 
231 1 7.08161e-05 0.00020652 0.00188628 5e-05 0 0 -0.107905 0 0 -5.1365e-09 
570 1 0.000124957 0.000158618 0.00180232 5e-05 0 0 -0.107905 0 0 -5.1365e-09 
300 1 0.000186959 0.000224784 0.00184564 5e-05 0 0 -0.107905 0 0 -5.1365e-09 
371 1 0.000273758 0.000179783 0.00181627 5e-05 -0.0639069 0.0514845 -0.00970212 -1.67261e-06 1.88543e-06 2.44008e-06 
135 1 0.000357955 0.000151482 0.00186843 5e-05 0 0 -0.107905 0 0 -5.1365e-09 
175 1 0.00042977 0.00014862 0.00176924 5e-05 0 0 -0.107905 0 0 -5.1365e-09 
61 1 -0.000309077 0.000346278 0.00180917 5e-05 0 0 -0.107905 0 0 -5.1365e-09 
388 1 -0.000211326 0.000371188 0.00177382 5e-05 -0.0258536 -0.0134507 -0.082718 0 0 -5.1365e-09 
507 1 -0.000135881 0.000243759 0.00176939 5e-05 0 0 -0.107905 0 0 -5.1365e-09 
87 1 -0.00012108 0.000346055 0.00181139 5e-05 -0.0136725 0.0266426 -0.10742 0 0 -5.1365e-09 
126 1 -0.000219952 0.000263814 0.00182557 5e-05 0 0 -0.107905 0 0 -5.1365e-09 
565 1 -3.37605e-05 0.000280087 0.00181493 5e-05 0.0193664 0.00765937 -0.0337478 0 0 -5.1365e-09 
133 1 6.27611e-05 0.0003664 0.00182362 5e-05 0.00159468 0.0104908 -0.0911981 0 0 -5.1365e-09 
140 1 0.000160011 0.000310995 0.0017921 5e-05 0 0 -0.107905 0 0 -5.1365e-09 
106 1 0.00022594 0.000365263 0.00187998 5e-05 0 0 -0.107905 0 0 -5.1365e-09 
444 1 0.000355973 0.000240547 0.00178298 5e-05 0.034732 -0.00307002 -0.0736131 0 0 -5.1365e-09 
71 1 0.000352809 0.000342677 0.00181287 5e-05 -0.0593064 0.0222079 -0.0290136 0 0 -5.1365e-09 
566 1 0.000275378 0.000282497 0.00183863 5e-05 0 0 -0.107905 0 0 -5.1365e-09 
44 1 0.000448579 0.000270717 0.00184798 5e-05 -0.000573934 -0.000965454 -0.10257 -1.72176e-07 -6.61977e-07 2.81826e-06 
419 1 0.000444063 0.000365203 0.00188056 5e-05 0 0 -0.107905 0 0 -5.1365e-09 
320 1 -0.000391598 0.000418094 0.00180534 5e-05 0 0 -0.107905 0 0 -5.1365e-09 
505 1 -0.000215062 0.000449511 0.00184416 5e-05 0 0 -0.107905 0 0 -5.1365e-09 
403 1 -0.000111357 0.000423989 0.00188464 5e-05 0 0 -0.107905 0 0 -5.1365e-09 
486 1 -1.31294e-05 0.000435873 0.00181836 5e-05 -0.0218578 -0.00471143 -0.0502111 0 0 -5.1365e-09 
240 1 0.000147107 0.000445133 0.00184293 5e-05 -0.014701 0.0287013 -0.000683431 0 0 -5.1365e-09 
7 1 0.000242771 0.0004288 0.00179671 5e-05 0.0587349 0.0215229 -0.0191125 0 0 -5.1365e-09 
265 1 0.000372074 0.000447249 0.00181414 5e-05 0 0 -0.107905 0 0 -5.1365e-09 
516 1 -0.000438296 -0.000438031 0.00192505 5e-05 0 0 -0.107905 0 0 -5.1365e-09 
85 1 -0.000272351 -0.00039852 0.00197862 5e-05 0 0 -0.107905 0 0 -5.1365e-09 
416 1 -0.00037612 -0.000447902 0.00201216 5e-05 0 0 -0.107905 0 0 -5.1365e-09 
556 1 -0.00019078 -0.000442374 0.00192748 5e-05 0 0 -0.107905 0 0 -5.1365e-09 
200 1 -0.000114619 -0.000401254 0.00202883 5e-05 0 0 -0.107905 0 0 -5.1365e-09 
14 1 1.53269e-05 -0.000400663 0.00195646 5e-05 0 0 -0.107905 0 0 -5.1365e-09 
102 1 0.000211556 -0.000385375 0.00191527 5e-05 0 0 -0.107905 0 0 -5.1365e-09 
398 1 0.000144022 -0.000430114 0.00198201 5e-05 0 0 -0.107905 0 0 -5.1365e-09 
255 1 0.000285271 -0.000443682 0.00194982 5e-05 0 0 -0.107905 0 0 -5.1365e-09 
166 1 0.00040683 -0.000408101 0.00195556 5e-05 0 0 -0.107905 0 0 -5.1365e-09 
518 1 0.000449192 -0.000424576 0.0020498 5e-05 0 0 -0.107905 0 0 -5.1365e-09 
237 1 -0.000421002 -0.000349255 0.00197569 5e-05 0.00853855 -0.039271 -0.035063 0 0 -5.1365e-09 
430 1 -0.0004459 -0.000247986 0.00200436 5e-05 0 0 -0.107905 0 0 -5.1365e-09 
295 1 -0.000370515 -0.000242576 0.00192426 5e-05 0 0 -0.107905 0 0 -5.1365e-09 
368 1 -0.000245926 -0.000273932 0.00193916 5e-05 0 0 -0.107905 0 0 -5.1365e-09 
313 1 -0.000130496 -0.000246088 0.00190404 5e-05 0 0 -0.107905 0 0 -5.1365e-09 
306 1 -0.000129544 -0.000248105 0.00200677 5e-05 0 0 -0.107905 0 0 -5.1365e-09 
377 1 -0.000186787 -0.000334498 0.00200416 5e-05 0 0 -0.107905 0 0 -5.1365e-09 
41 1 -1.42964e-05 -0.000279941 0.00193106 5e-05 0 0 -0.107905 0 0 -5.1365e-09 
478 1 3.52046e-05 -0.000316885 0.00202127 5e-05 0 0 -0.107905 0 0 -5.1365e-09 
114 1 0.000222987 -0.000264116 0.00190942 5e-05 0 0 -0.107905 0 0 -5.1365e-09 
361 1 0.000127549 -0.000290947 0.00195285 5e-05 0 0 -0.107905 0 0 -5.1365e-09 
144 1 0.000157534 -0.000330033 0.00204728 5e-05 0 0 -0.107905 0 0 -5.1365e-09 
274 1 0.000369058 -0.000245491 0.00193584 5e-05 0 0 -0.107905 0 0 -5.1365e-09 
496 1 0.000288136 -0.000305641 0.00200024 5e-05 0 0 -0.107905 0 0 -5.1365e-09 
258 1 0.000440036 -0.000317183 0.00200947 5e-05 0 0 -0.107905 0 0 -5.1365e-09 
165 1 -0.00040805 -9.14455e-05 0.00198135 5e-05 0 0 -0.107905 0 0 -5.1365e-09 
397 1 -0.000258885 -7.72879e-05 0.00192937 5e-05 0 0 -0.107905 0 0 -5.1365e-09 
191 1 -0.000318568 -0.000178849 0.00199578 5e-05 0 0 -0.107905 0 0 -5.1365e-09 
544 1 -0.000225809 -0.000171892 0.00192439 5e-05 0 0 -0.107905 0 0 -5.1365e-09 
63 1 -0.000204389 -0.000174206 0.0020226 5e-05 0 0 -0.107905 0 0 -5.1365e-09 
154 1 -0.00014673 -8.93019e-05 0.00200921 5e-05 0 0 -0.107905 0 0 -5.1365e-09 
510 1 6.31227e-05 -9.60885e-05 0.00194711 5e-05 0 0 -0.107905 0 0 -5.1365e-09 
247 1 -2.27964e-05 -0.00013833 0.00199286 5e-05 0 0 -0.107905 0 0 -5.1365e-09 
155 1 0.000144335 -0.00016267 0.00191186 5e-05 0 0 -0.107905 0 0 -5.1365e-09 
319 1 8.92362e-05 -0.000206457 0.00199115 5e-05 0 0 -0.107905 0 0 -5.1365e-09 
340 1 0.000346515 -0.0001162 0.00193381 5e-05 0 0 -0.107905 0 0 -5.1365e-09 
448 1 0.00028362 -0.00019569 0.0019515 5e-05 0 0 -0.107905 0 0 -5.1365e-09 
467 1 0.000237456 -8.10337e-05 0.00197242 5e-05 0 0 -0.107905 0 0 -5.1365e-09 
325 1 0.000328902 -0.000148977 0.00204656 5e-05 0 0 -0.107905 0 0 -5.1365e-09 
27 1 0.000446888 -0.000149694 0.0019964 5e-05 0 0 -0.107905 0 0 -5.1365e-09 
312 1 -0.000310705 -2.302e-05 0.00200869 5e-05 0 0 -0.107905 0 0 -5.1365e-09 
360 1 -0.000116626 -4.10669e-05 0.00192391 5e-05 -0.00520226 -0.0235063 -0.090646 0 0 -5.1365e-09 
557 1 -0.000141902 4.60577e-05 0.00199894 5e-05 0 0 -0.107905 0 0 -5.1365e-09 
53 1 1.40413e-05 -7.49236e-06 0.00198247 5e-05 0 0 -0.107905 0 0 -5.1365e-09 
69 1 0.00015327 3.9901e-06 0.00196817 5e-05 0 0 -0.107905 0 0 -5.1365e-09 
34 1 0.000306778 1.35669e-05 0.00192475 5e-05 0 0 -0.107905 0 0 -5.1365e-09 
479 1 0.000407571 4.84346e-05 0.00194609 5e-05 0 0 -0.107905 0 0 -5.1365e-09 
351 1 -0.000448672 0.000169691 0.00190393 5e-05 0 0 -0.107905 0 0 -5.1365e-09 
111 1 -0.000416092 8.80374e-05 0.00199215 5e-05 -0.0296774 -0.0112129 -0.0887357 0 0 -5.1365e-09 