ITEM: TIMESTEP
18000
ITEM: NUMBER OF ATOMS
571
ITEM: BOX BOUNDS ff ff ff
-0.001 0.001
-0.001 0.001
0 0.004
ITEM: ATOMS id type x y z radius vx vy vz fx fy fz 
209 1 -0.000194256 -2.41369e-06 0.000241329 5e-05 0.0181101 -0.0378152 -0.214786 0 0 -5.1365e-09 
252 1 -0.000289197 0.000129496 0.000391425 5e-05 0.0553544 -0.044972 -0.143636 0 0 -5.1365e-09 
551 1 -3.16224e-05 -0.00029682 0.000624957 5e-05 -0.0264572 0.0229255 -0.095365 0 0 -5.1365e-09 
328 1 8.84244e-05 -0.000300582 0.000676214 5e-05 -0.0360254 0.062724 -0.088419 0 0 -5.1365e-09 
526 1 0.000216196 -0.000239474 0.000513863 5e-05 -0.0349341 0.0214188 -0.149528 0 0 -5.1365e-09 
242 1 -6.31891e-06 -0.000110011 0.000475359 5e-05 -0.00793612 0.0877651 -0.205596 0 0 -5.1365e-09 
322 1 0.000132196 -0.000195065 0.000601894 5e-05 -0.0491296 0.013845 -0.168415 0 0 -5.1365e-09 
318 1 0.000211544 -0.000112927 0.000579205 5e-05 -0.0483912 0.0133628 -0.167465 0 0 -5.1365e-09 
468 1 -0.000342216 -4.87771e-05 0.000654194 5e-05 0.0516682 -0.0156672 -0.10337 0 0 -5.1365e-09 
182 1 -0.000197605 -4.38026e-05 0.000463181 5e-05 0.060596 -0.0419603 -0.200886 0 0 -5.1365e-09 
235 1 -8.23005e-05 -2.56523e-05 0.000611157 5e-05 0.0596464 -0.0635409 -0.158231 0 0 -5.1365e-09 
490 1 0.00026785 -2.67889e-05 0.000578042 5e-05 -0.0376832 0.0307187 -0.141786 3.88917e-07 -2.17749e-06 -5.25802e-07 
186 1 0.000281321 5.58172e-05 0.000632561 5e-05 -0.0661855 0.0141273 -0.121679 -3.88917e-07 2.17749e-06 5.15529e-07 
308 1 -0.000317205 0.000139634 0.000555638 5e-05 0.0194618 -0.0476071 -0.14474 0 0 -5.1365e-09 
353 1 -0.000152765 0.000202965 0.000464452 5e-05 0.000644034 -0.000277811 -0.176879 0 0 -5.1365e-09 
157 1 -9.98618e-05 0.000148671 0.000554137 5e-05 0.0353351 -0.0237009 -0.186045 0 0 -5.1365e-09 
425 1 -8.08989e-05 0.000314482 0.000611994 5e-05 0.0307473 -0.0265059 -0.15802 0 0 -5.1365e-09 
529 1 7.72829e-05 0.000170048 0.000617764 5e-05 -0.0383846 -0.0740935 -0.106995 0 0 -5.1365e-09 
89 1 1.58648e-05 -0.000367203 0.000699387 5e-05 0.0584456 0.0254538 -0.151445 0 0 -5.1365e-09 
453 1 -0.00011408 -0.000310638 0.000700993 5e-05 0.0382751 0.0272204 -0.127112 0 0 -5.1365e-09 
73 1 0.000197584 -0.000305089 0.000725971 5e-05 -0.0176359 0.04965 -0.0948457 0 0 -5.1365e-09 
250 1 3.30902e-05 -0.000159232 0.000628581 5e-05 -0.01272 0.00699488 -0.148773 0 0 -5.1365e-09 
199 1 0.000220444 -0.000150513 0.000679151 5e-05 -0.0431957 0.0284453 -0.149794 0 0 -5.1365e-09 
508 1 0.000229132 -4.38143e-05 0.000747327 5e-05 -0.0416663 0.0449438 -0.145007 0 0 -5.1365e-09 
24 1 0.000319166 -0.000126531 0.000735999 5e-05 -0.054135 0.0213206 -0.109951 0 0 -5.1365e-09 
367 1 -0.000400466 -4.80426e-05 0.000776699 5e-05 0.0382325 -0.027177 -0.176628 0 0 -5.1365e-09 
285 1 -0.000168424 -4.46938e-05 0.000737639 5e-05 0.0692519 -0.0312145 -0.151086 0 0 -5.1365e-09 
36 1 7.67841e-05 2.37534e-05 0.000646935 5e-05 -0.0305416 0.0856669 -0.150786 0 0 -5.1365e-09 
350 1 0.000423224 -6.04082e-06 0.000820649 5e-05 -0.0408249 0.0304954 -0.0777211 0 0 -5.1365e-09 
243 1 -0.000351571 6.23754e-05 0.000649794 5e-05 0.0382087 -0.0310946 -0.134211 0 0 -5.1365e-09 
326 1 -0.00020526 8.98813e-05 0.000618825 5e-05 0.0568163 -0.0179503 -0.163941 0 0 -5.1365e-09 
509 1 -0.000315042 6.60594e-05 0.000823139 5e-05 0.0272219 -0.0421648 -0.101024 0 0 -5.1365e-09 
471 1 -0.000288942 0.000144968 0.000693334 5e-05 0.0254408 -0.0403433 -0.159865 0 0 -5.1365e-09 
183 1 -4.64227e-05 0.000181235 0.000726168 5e-05 0.0770774 -0.0299861 -0.165183 0 0 -5.1365e-09 
128 1 -0.000254253 0.000262873 0.000750332 5e-05 0.018486 -0.0322747 -0.127711 0 0 -5.1365e-09 
57 1 9.95065e-05 0.000231413 0.00073228 5e-05 -0.0395586 -0.0222407 -0.147937 0 0 -5.1365e-09 
422 1 8.19093e-05 0.000360571 0.000697347 5e-05 -0.050014 -0.0313694 -0.124057 0 0 -5.1365e-09 
528 1 0.000115479 -0.000429642 0.000920317 5e-05 -0.0653772 0.0114037 -0.106634 0 0 -5.1365e-09 
379 1 -0.000199947 -0.000298952 0.000876078 5e-05 0.0352849 0.0118298 -0.119742 0 0 -5.1365e-09 
23 1 -1.38138e-05 -0.000353935 0.000822722 5e-05 -0.0605067 0.00157336 -0.128815 0 0 -5.1365e-09 
251 1 6.92237e-07 -0.000252478 0.00080774 5e-05 -0.0595368 0.00696311 -0.142734 0 0 -5.1365e-09 
541 1 9.02498e-05 -0.000261637 0.000935451 5e-05 -0.0675318 0.0262657 -0.12051 0 0 -5.1365e-09 
222 1 0.00034759 -0.000216115 0.000832482 5e-05 -0.0133679 0.0199325 -0.118167 0 0 -5.1365e-09 
558 1 0.000206413 -0.000352272 0.000904123 5e-05 -0.0230921 0.0131989 -0.119933 0 0 -5.1365e-09 
381 1 0.000288078 -0.000283456 0.00091566 5e-05 -0.000573064 0.00154187 -0.150809 0 0 -5.1365e-09 
13 1 0.000397317 -0.00020481 0.000944188 5e-05 -0.0189706 0.0296707 -0.111693 0 0 -5.1365e-09 
299 1 0.000215758 -0.000206119 0.000811401 5e-05 -0.0311492 0.0147657 -0.128785 0 0 -5.1365e-09 
37 1 0.000317359 -4.29283e-05 0.00086703 5e-05 -0.03089 0.0469914 -0.123273 0 0 -5.1365e-09 
239 1 -0.000396588 -5.01133e-05 0.000895425 5e-05 0.051609 -0.0200819 -0.113254 0 0 -5.1365e-09 
321 1 -0.000281779 -1.31647e-05 0.00088625 5e-05 0.0232222 -0.0263088 -0.149143 0 0 -5.1365e-09 
153 1 -0.000200529 -9.51009e-05 0.000967679 5e-05 0.0495823 -0.049178 -0.0972736 0 0 -5.1365e-09 
132 1 0.000273649 4.21696e-05 0.000801817 5e-05 -0.0504918 0.0630461 -0.146084 0 0 -5.1365e-09 
482 1 -0.000365353 0.000157187 0.000871067 5e-05 0.0421089 -0.0332997 -0.0995868 0 0 -5.1365e-09 
463 1 -0.000349244 7.55573e-05 0.000973891 5e-05 0.0415712 -0.0331412 -0.141222 0 0 -5.1365e-09 
485 1 -0.000212101 7.46128e-05 0.000837031 5e-05 0.0600506 -0.0251963 -0.11885 0 0 -5.1365e-09 
311 1 -0.000195297 0.0002027 0.000804379 5e-05 0.0385044 -0.0223377 -0.171917 0 0 -5.1365e-09 
475 1 0.000151108 0.000157582 0.000827761 5e-05 0.0861921 -0.0290521 -0.120145 0 0 -5.1365e-09 
493 1 0.000309718 0.00018865 0.000810339 5e-05 0.00275144 -0.0508881 -0.125478 0 0 -5.1365e-09 
10 1 -0.00031552 0.000241166 0.000956535 5e-05 0.0215427 -0.0145968 -0.118709 0 0 -5.1365e-09 
115 1 -4.14497e-05 0.000262157 0.000873214 5e-05 0.0414637 -0.0104724 -0.130843 0 0 -5.1365e-09 
90 1 0.000230687 0.000268925 0.000830455 5e-05 -0.0162478 -0.0130739 -0.151116 0 0 -5.1365e-09 
473 1 -0.000212131 -0.000434271 0.00109978 5e-05 0.0304737 0.0187174 -0.0820986 0 0 -5.1365e-09 
489 1 -2.70804e-05 -0.000457478 0.000979699 5e-05 0.0122565 0.0478796 -0.0978205 0 0 -5.1365e-09 
196 1 0.000118394 -0.00044565 0.00102329 5e-05 0.0528331 0.0416524 -0.0848397 0 0 -5.1365e-09 
291 1 0.000176036 -0.000384772 0.00112359 5e-05 0.0126411 -0.0134993 -0.100961 0 0 -5.1365e-09 
402 1 0.000259767 -0.000367634 0.00100152 5e-05 -0.0231064 0.0233691 -0.0939072 0 0 -5.1365e-09 
401 1 -1.06503e-05 -0.000328552 0.00104751 5e-05 -0.04507 0.0396533 -0.0817258 0 0 -5.1365e-09 
305 1 0.00012675 -0.000244566 0.00112524 5e-05 0.0101954 0.0630443 -0.0885901 0 0 -5.1365e-09 
331 1 0.000352087 -0.000274918 0.00105576 5e-05 -0.0198594 0.03778 -0.114907 0 0 -5.1365e-09 
168 1 -0.000401588 -0.00026141 0.00107079 5e-05 0.0695538 -0.00545013 -0.0589183 0 0 -5.1365e-09 
363 1 -0.000405771 -0.000139801 0.00108875 5e-05 0.0530166 0.0364102 -0.105102 0 0 -5.1365e-09 
449 1 -0.000311175 -0.000147254 0.00112983 5e-05 0.028018 0.0127565 -0.107352 0 0 -5.1365e-09 
434 1 0.000300616 -0.000109012 0.000981557 5e-05 -0.049313 0.0466112 -0.122134 0 0 -5.1365e-09 
25 1 0.000206582 -0.000218535 0.00103119 5e-05 -0.0386864 0.00878656 -0.11577 0 0 -5.1365e-09 
17 1 0.000288833 -9.49618e-05 0.00111393 5e-05 -0.0206571 0.0210213 -0.118644 0 0 -5.1365e-09 
136 1 0.000446812 -0.000163374 0.0010215 5e-05 -0.03637 -0.000579547 -0.121399 0 0 -5.1365e-09 
457 1 0.000440579 -6.23893e-05 0.00109361 5e-05 -0.00108388 0.0175079 -0.13324 0 0 -5.1365e-09 
387 1 -0.0004993 -1.02744e-05 0.00113598 5e-05 0.00550035 -0.0424905 -0.0742533 0 0 -5.1365e-09 
383 1 -0.000406192 -3.30974e-06 0.0010469 5e-05 0.00112309 -0.0363858 -0.154848 0 0 -5.1365e-09 
564 1 -0.000181078 3.48147e-05 0.00111173 5e-05 0.0281653 -0.020797 -0.120503 0 0 -5.1365e-09 
86 1 0.000129031 -5.46613e-06 0.000984452 5e-05 -0.0701383 0.0489222 -0.117419 0 0 -5.1365e-09 
459 1 0.000347618 1.68924e-05 0.000953801 5e-05 -0.0350169 0.0245835 -0.159565 0 0 -5.1365e-09 
91 1 0.000242904 4.81165e-05 0.00102113 5e-05 -0.0130264 0.0387272 -0.148257 0 0 -5.1365e-09 
50 1 0.000447894 3.75959e-05 0.00100982 5e-05 -0.0589984 0.00896944 -0.0750159 0 0 -5.1365e-09 
123 1 -0.000437397 0.000164918 0.000986409 5e-05 0.0226681 -0.0331329 -0.110471 0 0 -5.1365e-09 
61 1 -0.000474914 8.46433e-05 0.00106468 5e-05 0.0376947 -0.0295649 -0.112922 0 0 -5.1365e-09 
49 1 -0.000231553 9.03804e-05 0.000975926 5e-05 0.0369398 -0.0310193 -0.161337 0 0 -5.1365e-09 
126 1 -0.000360204 9.25667e-05 0.00107363 5e-05 0.0167053 -0.0434834 -0.109485 0 0 -5.1365e-09 
388 1 -0.000319446 0.000181741 0.00105163 5e-05 0.0263959 -0.0384934 -0.129025 0 0 -5.1365e-09 
213 1 -0.000115738 0.000130276 0.00106354 5e-05 0.0663196 -0.0310695 -0.112854 0 0 -5.1365e-09 
441 1 0.000426178 0.000194664 0.00103723 5e-05 -0.0196202 0.0586836 -0.120528 0 0 -5.1365e-09 
393 1 -0.000405025 0.000237996 0.00105102 5e-05 0.0170639 -0.0312311 -0.104396 0 0 -5.1365e-09 
537 1 -0.000303768 0.000337832 0.00104998 5e-05 0.0316513 -0.0197792 -0.107977 0 0 -5.1365e-09 
108 1 -0.000184777 0.000254113 0.00105206 5e-05 -0.00119692 0.0106241 -0.121845 0 0 -5.1365e-09 
358 1 4.85718e-05 0.000297502 0.00109223 5e-05 0.0379713 -0.073472 -0.124682 0 0 -5.1365e-09 
560 1 -5.86366e-05 0.000373226 0.00108882 5e-05 -0.0244313 -0.0147841 -0.0973206 0 0 -5.1365e-09 
384 1 -1.23347e-05 0.000438551 0.00102555 5e-05 0.0366834 -0.0280761 -0.0727054 0 0 -5.1365e-09 
60 1 0.000111608 0.000369512 0.000985812 5e-05 -0.025586 -0.0363983 -0.118066 0 0 -5.1365e-09 
317 1 7.02221e-05 -0.000512669 0.00132565 5e-05 0.0270062 0.0545941 -0.055723 0 0 -5.1365e-09 
42 1 -2.97327e-05 -0.000489704 0.00124027 5e-05 0.0393424 0.0360296 -0.0511772 0 0 -5.1365e-09 
107 1 0.000179584 -0.000485146 0.0013294 5e-05 -0.00416055 0.0233196 -0.058771 0 0 -5.1365e-09 
296 1 0.000329846 -0.000423522 0.00128602 5e-05 -0.021723 0.000774492 -0.0553537 0 0 -5.1365e-09 
549 1 -2.17658e-05 -0.000202242 0.00115818 5e-05 0.0270582 0.0804245 -0.115993 0 0 -5.1365e-09 
538 1 0.000232829 -0.000277047 0.00126045 5e-05 0.0770698 0.0508823 -0.0746686 0 0 -5.1365e-09 
141 1 0.00031916 -0.000285509 0.00116096 5e-05 -0.0174466 0.0278864 -0.0908971 0 0 -5.1365e-09 
159 1 0.0003794 -0.000332205 0.00127487 5e-05 -0.011056 0.015363 -0.0905313 0 0 -5.1365e-09 
35 1 0.00044122 -0.000257134 0.00122548 5e-05 -0.0418841 0.0176965 -0.0878999 0 0 -5.1365e-09 
342 1 -0.000457699 -0.000194241 0.00122288 5e-05 -0.00949733 -0.012447 -0.107385 0 0 -5.1365e-09 
281 1 -0.000241533 -0.000163094 0.00124362 5e-05 0.0426414 -0.0222216 -0.0905234 0 0 -5.1365e-09 
78 1 0.00020018 -0.000164475 0.00111612 5e-05 -0.0589772 0.035378 -0.117031 0 0 -5.1365e-09 
448 1 0.000279977 -0.000176552 0.00119663 5e-05 -0.0471916 0.0187492 -0.114225 0 0 -5.1365e-09 
121 1 0.000398637 -0.000205357 0.00112885 5e-05 -0.0165498 -0.0165638 -0.119105 0 0 -5.1365e-09 
447 1 0.000498929 -0.000113187 0.00121603 5e-05 -0.0235526 0.023994 -0.0941728 0 0 -5.1365e-09 
274 1 0.000384308 -0.000124381 0.0012176 5e-05 -0.0139707 0.0136985 -0.135942 0 0 -5.1365e-09 
429 1 -0.000536036 -6.97519e-05 0.00130456 5e-05 0.0257719 -0.0155126 -0.083009 0 0 -5.1365e-09 
26 1 -0.000507877 3.12494e-05 0.00123513 5e-05 0.0177791 -0.0289091 -0.0799415 0 0 -5.1365e-09 
160 1 -0.000354246 -0.000108001 0.00122459 5e-05 0.0373259 -0.0330444 -0.113433 0 0 -5.1365e-09 
75 1 -0.00040935 -5.37468e-06 0.00122661 5e-05 0.0305145 -0.0203065 -0.102239 0 0 -5.1365e-09 
92 1 -0.000197956 -7.43842e-05 0.00115591 5e-05 0.0482677 -0.024454 -0.121329 0 0 -5.1365e-09 
30 1 -0.000307513 1.03417e-05 0.00112818 5e-05 0.0352693 -0.00179748 -0.152228 0 0 -5.1365e-09 
142 1 -0.000277128 4.48742e-05 0.00125101 5e-05 0.0289615 -0.0109281 -0.114139 0 0 -5.1365e-09 
454 1 0.000207476 2.84286e-05 0.00119715 5e-05 -0.0164647 0.0288415 -0.126346 0 0 -5.1365e-09 
170 1 0.000307094 -6.149e-05 0.00124358 5e-05 -0.0329106 0.0273748 -0.089665 0 0 -5.1365e-09 
261 1 0.000376073 -1.74988e-05 0.00116286 5e-05 -0.0180345 0.00654337 -0.121346 0 0 -5.1365e-09 
287 1 0.000396805 7.62071e-05 0.00119131 5e-05 -0.0317463 0.0315325 -0.100897 0 0 -5.1365e-09 
340 1 0.000430778 -1.06755e-05 0.00125382 5e-05 -0.00706978 0.0138239 -0.109064 0 0 -5.1365e-09 
266 1 0.000541707 2.77758e-06 0.00126636 5e-05 -0.00541411 0.024252 -0.0712393 0 0 -5.1365e-09 
421 1 -0.000437158 0.000109675 0.00117107 5e-05 0.0130716 -0.030446 -0.122396 0 0 -5.1365e-09 
226 1 -0.000481302 0.000196664 0.00124262 5e-05 0.0105616 -0.0305489 -0.103274 0 0 -5.1365e-09 
507 1 -0.000188278 0.000127814 0.00125487 5e-05 0.0561152 -0.0364735 -0.104148 0 0 -5.1365e-09 
324 1 -0.000322733 0.000138344 0.00124983 5e-05 0.0278981 -0.000866243 -0.110822 0 0 -5.1365e-09 
47 1 -0.000343237 0.000203045 0.00114874 5e-05 0.00699188 -0.0197721 -0.108123 0 0 -5.1365e-09 
256 1 0.000304353 0.000113067 0.00123397 5e-05 -0.0478942 0.0332841 -0.0850437 0 0 -5.1365e-09 
497 1 0.000414607 0.000169801 0.0011516 5e-05 -0.0237572 0.0256176 -0.131259 0 0 -5.1365e-09 
84 1 0.000497455 8.84298e-05 0.00121882 5e-05 -0.0494806 -0.00271987 -0.0739627 0 0 -5.1365e-09 
346 1 0.000385966 0.000142788 0.00128438 5e-05 -0.0301393 0.0177795 -0.0973059 0 0 -5.1365e-09 
282 1 0.000508708 0.000155334 0.00130395 5e-05 0.00798432 0.0313199 -0.0820177 0 0 -5.1365e-09 
320 1 -0.000374981 0.000312413 0.00112415 5e-05 0.0165563 -0.0381507 -0.0968943 0 0 -5.1365e-09 
224 1 -0.000415875 0.000279103 0.00127137 5e-05 0.00934345 -0.0113026 -0.115248 0 0 -5.1365e-09 
87 1 -0.000212267 0.000241807 0.00116349 5e-05 0.0488708 -0.0292206 -0.118932 0 0 -5.1365e-09 
228 1 0.000110765 0.000237225 0.0012367 5e-05 -0.0439509 -0.0505929 -0.0685502 0 0 -5.1365e-09 
74 1 0.00040531 0.000272629 0.0011563 5e-05 -0.0494232 -0.0243138 -0.0665736 0 0 -5.1365e-09 
389 1 -0.000324549 0.000349924 0.00122766 5e-05 0.0122388 -0.0397967 -0.110364 0 0 -5.1365e-09 
174 1 -0.000154537 0.000461987 0.00130645 5e-05 -0.0773338 -0.00813181 -0.0778442 0 0 -5.1365e-09 
476 1 0.000146132 0.000477027 0.00113158 5e-05 -0.0190918 -0.0301779 -0.100431 0 0 -5.1365e-09 
140 1 9.02803e-05 0.000417943 0.00130391 5e-05 -0.0180171 -0.0287945 -0.0836877 0 0 -5.1365e-09 
502 1 6.87436e-05 0.000531043 0.00130918 5e-05 -0.00233688 -0.0178703 -0.0792911 0 0 -5.1365e-09 
9 1 -8.24409e-05 -0.000544133 0.00136531 5e-05 0.00148149 -0.00384147 -0.0516314 0 0 -5.1365e-09 
283 1 -0.000196228 -0.000538681 0.00150339 5e-05 0.0223176 0.043163 -0.0115932 0 0 -5.1365e-09 
553 1 -1.71917e-05 -0.000588004 0.00147833 5e-05 0.0100147 0.0121455 -0.0269176 0 0 -5.1365e-09 
298 1 0.00018481 -0.000548088 0.00147563 5e-05 0.0250584 0.0144223 -0.035281 0 0 -5.1365e-09 
113 1 -0.000352739 -0.000411772 0.00140402 5e-05 0.0302533 -0.00214568 -0.0526711 0 0 -5.1365e-09 
536 1 5.94587e-05 -0.000465277 0.00143316 5e-05 -0.000629254 0.0197803 -0.062413 0 0 -5.1365e-09 
3 1 -5.12496e-05 -0.000447844 0.001339 5e-05 0.0116132 0.0216842 -0.111443 0 0 -5.1365e-09 
382 1 0.000105543 -0.000411642 0.00151359 5e-05 0.0145954 -0.0111898 -0.0296465 0 0 -5.1365e-09 
118 1 0.000293759 -0.000508359 0.00154344 5e-05 0.0156173 0.0434191 0.0187866 0 0 -5.1365e-09 
316 1 0.000365298 -0.000392311 0.001412 5e-05 -0.0208822 0.0389342 -0.0266614 0 0 -5.1365e-09 
227 1 -0.000414436 -0.000288202 0.00134072 5e-05 0.0267836 0.00715341 -0.0631874 0 0 -5.1365e-09 
514 1 -0.000486965 -0.000268739 0.00146208 5e-05 0.0140434 0.00897453 -0.063807 0 0 -5.1365e-09 
29 1 -0.000391879 -0.000319422 0.00146876 5e-05 -0.00315069 -0.00575999 -0.0522308 0 0 -5.1365e-09 
496 1 0.000393238 -0.00021267 0.00134662 5e-05 0.000402999 0.0330673 -0.106174 0 0 -5.1365e-09 
258 1 0.000513529 -0.000220298 0.00134738 5e-05 -0.0100841 0.0188322 -0.0899728 0 0 -5.1365e-09 
166 1 0.00045944 -0.000348099 0.00147597 5e-05 0.00694192 0.0166053 -0.0428373 0 0 -5.1365e-09 
215 1 0.000513181 -0.000256462 0.0014836 5e-05 -0.0328037 0.031596 -0.0525702 0 0 -5.1365e-09 
337 1 -0.000527066 -0.000158683 0.00137185 5e-05 0.0258776 -0.0238849 -0.0653491 0 0 -5.1365e-09 
51 1 -0.000340438 -0.000181102 0.0013293 5e-05 0.0519598 0.00694083 -0.10818 0 0 -5.1365e-09 
165 1 -0.000430478 -0.000127617 0.00137067 5e-05 0.0267613 -0.016306 -0.0923244 0 0 -5.1365e-09 
191 1 -0.000376119 -0.000144056 0.00147037 5e-05 0.036613 -0.0266554 -0.0625668 0 0 -5.1365e-09 
330 1 0.000378418 -9.17545e-05 0.00133076 5e-05 0.00128195 1.1824e-05 -0.0969963 0 0 -5.1365e-09 
155 1 0.000330998 -0.000150189 0.00142589 5e-05 -0.0213978 0.0247995 -0.0630054 0 0 -5.1365e-09 
325 1 0.000447763 -0.00014557 0.00140423 5e-05 -0.0349816 0.00727785 -0.101061 0 0 -5.1365e-09 
27 1 0.000553775 -0.000115601 0.00145549 5e-05 -0.010976 0.0237717 -0.0202998 0 0 -5.1365e-09 
438 1 -0.000546678 2.10506e-05 0.00138129 5e-05 0.0176085 -0.0105965 -0.0763272 0 0 -5.1365e-09 
355 1 -0.000563143 -8.93482e-05 0.0014377 5e-05 0.00770433 0.0105302 -0.0834801 0 0 -5.1365e-09 
45 1 -0.000463184 2.69942e-06 0.00132395 5e-05 -0.00136596 -0.0108376 -0.0970093 0 0 -5.1365e-09 
6 1 -0.000383555 6.27891e-05 0.00130087 5e-05 0.00524257 0.00649951 -0.109361 0 0 -5.1365e-09 
312 1 -0.000391673 -4.45019e-05 0.00143726 5e-05 0.0346596 -0.00816044 -0.0711684 -6.07442e-07 -2.13469e-06 6.18526e-07 
204 1 -0.000291416 -8.17303e-05 0.00144629 5e-05 0.0181365 -0.0362077 -0.0723655 0 0 -5.1365e-09 
214 1 -0.000368095 5.02909e-05 0.00141647 5e-05 0.00922682 0.00043909 -0.106054 6.07442e-07 2.13469e-06 -6.28799e-07 
455 1 -0.000199825 -4.30163e-05 0.00138451 5e-05 0.0145165 -0.0156057 -0.079953 0 0 -5.1365e-09 
504 1 0.000263758 -5.47745e-06 0.00134591 5e-05 -0.00475341 0.00820692 -0.106356 0 0 -5.1365e-09 
82 1 0.000205028 5.21002e-05 0.00147568 5e-05 -0.0582155 -0.0180804 -0.0453375 0 0 -5.1365e-09 
547 1 0.000344083 9.73559e-05 0.00142908 5e-05 -0.00444969 0.029182 -0.0752786 0 0 -5.1365e-09 
100 1 0.00047004 -4.59125e-05 0.00144275 5e-05 -5.06947e-05 0.0377358 -0.100246 0 0 -5.1365e-09 
34 1 0.000373579 -7.5454e-06 0.00138542 5e-05 -0.0393923 0.00116357 -0.109494 0 0 -5.1365e-09 
479 1 0.000456978 4.93828e-05 0.0013932 5e-05 -0.0227994 -0.0189735 -0.0872256 0 0 -5.1365e-09 
208 1 0.000558843 -1.84685e-05 0.00139672 5e-05 -0.00463279 0.0193268 -0.0750532 0 0 -5.1365e-09 
11 1 0.000549969 7.80171e-05 0.00136388 5e-05 -0.0176328 0.0210312 -0.0722219 0 0 -5.1365e-09 
351 1 -0.000531292 0.000126196 0.00137617 5e-05 0.0326644 -0.0157291 -0.0553733 0 0 -5.1365e-09 
339 1 -0.000554731 0.000146386 0.00147146 5e-05 -0.00673511 -0.0239557 -0.0657447 0 0 -5.1365e-09 
95 1 -0.00039121 0.00019263 0.00134758 5e-05 -0.00209186 -0.0346595 -0.0952367 0 0 -5.1365e-09 
109 1 -0.000431881 0.000129483 0.00141445 5e-05 -0.00180072 0.010735 -0.11214 0 0 -5.1365e-09 
347 1 -0.000292359 0.000102866 0.00137006 5e-05 0.0223649 0.00709058 -0.0892605 0 0 -5.1365e-09 
225 1 0.000297955 0.000149471 0.00135611 5e-05 -0.0325784 0.0113957 -0.0807528 0 0 -5.1365e-09 
135 1 0.000446587 0.000158247 0.00139808 5e-05 -0.0321229 0.00954734 -0.078401 0 0 -5.1365e-09 
175 1 0.000541028 0.000153613 0.00144977 5e-05 -0.0322727 0.0345017 -0.0676124 0 0 -5.1365e-09 
297 1 -0.000458792 0.000274343 0.0014259 5e-05 0.0208417 -0.0225638 -0.0763233 0 0 -5.1365e-09 
273 1 -7.03562e-05 0.000356691 0.00149645 5e-05 -0.0607363 0.0127432 -0.024427 0 0 -5.1365e-09 
413 1 0.000383722 0.000251986 0.00140487 5e-05 -0.0229637 0.0266518 -0.0762773 0 0 -5.1365e-09 
290 1 0.00040904 0.00035045 0.00145253 5e-05 0.00607039 0.00668545 -0.0526499 0 0 -5.1365e-09 
244 1 0.000450751 0.000237004 0.0013145 5e-05 -0.0325756 0.0106015 -0.0925672 0 0 -5.1365e-09 
408 1 -0.000421121 0.000364466 0.00145433 5e-05 0.0162547 0.0109325 -0.0255055 0 0 -5.1365e-09 
505 1 -0.000383362 0.000442485 0.00151336 5e-05 -0.0660022 0.00589566 0.00230049 0 0 -5.1365e-09 
181 1 2.27918e-06 0.000443391 0.00136132 5e-05 -0.0185635 0.0197055 -0.0697928 0 0 -5.1365e-09 
394 1 -9.17051e-05 0.00045998 0.00144545 5e-05 -0.0408888 0.00882549 -0.0637921 0 0 -5.1365e-09 
218 1 0.000320707 0.000414491 0.00134599 5e-05 -0.0192395 -0.00584947 -0.0595429 0 0 -5.1365e-09 
223 1 -0.000288492 0.000522936 0.0015335 5e-05 -0.0211919 -0.0116152 -0.0256111 0 0 -5.1365e-09 
548 1 -1.4403e-05 0.000553255 0.00136794 5e-05 -0.014855 -0.00966794 -0.0777296 0 0 -5.1365e-09 
494 1 1.97597e-05 0.000583127 0.00146238 5e-05 -0.0365424 0.0391472 -0.0565313 0 0 -5.1365e-09 
207 1 -0.000108408 -0.000584005 0.00153937 5e-05 0.0131316 0.00945648 -0.0315013 0 0 -5.1365e-09 
556 1 -0.000183081 -0.000593174 0.00162843 5e-05 -0.0124046 -0.0189891 -0.0382402 0 0 -5.1365e-09 
569 1 2.62791e-05 -0.00062641 0.00165496 5e-05 0.00300318 -0.0201693 -0.0298921 0 0 -5.1365e-09 
373 1 0.000131305 -0.000596175 0.00160153 5e-05 0.0205368 0.00841853 -0.0317747 0 0 -5.1365e-09 
545 1 0.000231863 -0.000574893 0.00160645 5e-05 0.0462044 0.0233455 -0.029995 0 0 -5.1365e-09 
513 1 0.000311155 -0.000538622 0.00167564 5e-05 0.0103026 0.00987056 0.00103625 0 0 -5.1365e-09 
516 1 -0.000385128 -0.000473742 0.00159998 5e-05 0.0030603 0.00635538 -0.0350521 0 0 -5.1365e-09 
68 1 -0.000371428 -0.000420417 0.00150741 5e-05 0.0119734 0.000360419 -0.0621329 0 0 -5.1365e-09 
67 1 -0.000303746 -0.000519069 0.00155611 5e-05 0.0283898 -0.00416639 -0.00294804 0 0 -5.1365e-09 
335 1 -0.000227255 -0.00044915 0.00155082 5e-05 0.0256571 -0.0187562 0.00612361 0 0 -5.1365e-09 
85 1 -0.000235254 -0.000497677 0.00163987 5e-05 0.0295362 -0.0162365 0.00272157 0 0 -5.1365e-09 
523 1 -0.000103035 -0.000424966 0.0015501 5e-05 0.0337556 -0.00074008 0.0101061 0 0 -5.1365e-09 
284 1 -0.000129258 -0.000508514 0.00160764 5e-05 0.00938736 -0.00636459 0.00319637 0 0 -5.1365e-09 
167 1 -0.000180254 -0.000413188 0.00163334 5e-05 0.01272 -0.0110297 0.0148806 0 0 -5.1365e-09 
4 1 -7.7864e-05 -0.000410785 0.00164658 5e-05 -0.0014938 -0.0212246 0.00601816 0 0 -5.1365e-09 
375 1 -1.96555e-05 -0.000499582 0.00155868 5e-05 0.0131188 -0.0055457 -0.0276519 0 0 -5.1365e-09 
14 1 7.55872e-05 -0.000494721 0.0016037 5e-05 0.0335558 0.0174005 -0.0091058 0 0 -5.1365e-09 
203 1 9.89466e-05 -0.000404916 0.00165573 5e-05 0.0268971 -0.0354563 0.00114366 0 0 -5.1365e-09 
188 1 0.000192465 -0.000470329 0.00154593 5e-05 -0.00367482 0.000729599 -0.027048 0 0 -5.1365e-09 
511 1 0.000174375 -0.000496553 0.00164322 5e-05 -0.00117143 0.00211605 -0.00878827 0 0 -5.1365e-09 
156 1 0.000306577 -0.000399448 0.00155255 5e-05 0.0125096 0.00416076 -0.015773 0 0 -5.1365e-09 
102 1 0.00033744 -0.000438218 0.00164672 5e-05 0.0307353 0.0158619 -0.00497428 0 0 -5.1365e-09 
255 1 0.000404172 -0.000453797 0.0015467 5e-05 0.0204149 0.00384834 -0.0272904 0 0 -5.1365e-09 
518 1 0.000464134 -0.000383547 0.00158843 5e-05 0.0267841 0.0294258 -0.0126345 0 0 -5.1365e-09 
430 1 -0.000558015 -0.000249113 0.00157647 5e-05 -0.00124924 0.0292738 -0.0399207 0 0 -5.1365e-09 
237 1 -0.000484993 -0.000329601 0.00155273 5e-05 0.0027852 0.0151625 -0.0540216 0 0 -5.1365e-09 
336 1 -0.000410938 -0.000371945 0.00161331 5e-05 0.00828467 -0.00496129 -0.059778 0 0 -5.1365e-09 
417 1 -0.000467834 -0.000284199 0.00164748 5e-05 -0.00619134 0.0108082 -0.0348073 0 0 -5.1365e-09 
99 1 -0.000213178 -0.000344806 0.00155477 5e-05 0.0123935 -0.00782456 -0.0294466 0 0 -5.1365e-09 
400 1 -0.000323401 -0.000255447 0.00152338 5e-05 0.00735629 -0.00927811 -0.0718275 0 0 -5.1365e-09 
368 1 -0.000314279 -0.000342992 0.00158108 5e-05 -0.00186539 -0.00131542 -0.0297732 0 0 -5.1365e-09 
544 1 -0.000224363 -0.000284881 0.00165403 5e-05 0.00724009 -0.00660484 0.00594131 0 0 -5.1365e-09 
18 1 -0.000369762 -0.000255359 0.00162127 5e-05 0.0116299 0.00205636 -0.0233714 0 0 -5.1365e-09 
534 1 -0.000131492 -0.000311607 0.00162095 5e-05 0.0203026 -0.00929673 0.00489179 0 0 -5.1365e-09 
427 1 -5.99161e-05 -0.000331102 0.00155204 5e-05 0.0284138 0.00776312 0.00887798 0 0 -5.1365e-09 
131 1 8.6642e-05 -0.000305975 0.00155021 5e-05 0.00565177 -0.0169132 -0.013987 0 0 -5.1365e-09 
554 1 2.23726e-05 -0.000368876 0.00160025 5e-05 0.0213644 -0.0165121 -0.00321508 0 0 -5.1365e-09 
104 1 -1.57616e-05 -0.000255156 0.00159992 5e-05 0.0154208 -0.0199233 -0.00107576 0 0 -5.1365e-09 
279 1 5.78315e-05 -0.00028941 0.00166155 5e-05 0.0366971 -0.0138433 0.00374814 0 0 -5.1365e-09 
236 1 0.000211141 -0.00037274 0.00157563 5e-05 0.0156097 -0.0077717 -0.021694 0 0 -5.1365e-09 
22 1 0.000153212 -0.000316624 0.00163484 5e-05 0.0241595 -0.00518202 -0.00350948 0 0 -5.1365e-09 
70 1 0.000201663 -0.000266615 0.00155071 5e-05 -0.00708812 0.0101295 0.00402136 0 0 -5.1365e-09 
114 1 0.000298298 -0.000313288 0.00160269 5e-05 0.0115252 0.0124192 -0.0365576 0 0 -5.1365e-09 
386 1 0.000352612 -0.000224161 0.00157286 5e-05 -0.0131938 0.00768826 -0.0290177 0 0 -5.1365e-09 
150 1 0.000386161 -0.000325525 0.00155584 5e-05 0.0251613 0.0288637 -0.0259716 0 0 -5.1365e-09 
52 1 0.000408842 -0.000331432 0.00165819 5e-05 -0.0233385 0.0116078 0.0279844 0 0 -5.1365e-09 
198 1 0.000451674 -0.000245546 0.00158184 5e-05 0.00030564 0.0200197 -0.0425889 0 0 -5.1365e-09 
93 1 0.000549722 -0.000273244 0.00159202 5e-05 -0.00504157 0.0276696 -0.0241247 0 0 -5.1365e-09 
83 1 -0.000548145 -0.000177946 0.00150231 5e-05 -0.00284926 -0.0154703 -0.0490094 0 0 -5.1365e-09 
31 1 -0.00055534 -0.000117217 0.00164645 5e-05 0.0638256 0.0151786 -0.0216755 0 0 -5.1365e-09 
295 1 -0.000433668 -0.000197532 0.00155096 5e-05 0.00318276 -7.71275e-05 -0.0671627 0 0 -5.1365e-09 
103 1 -0.000468836 -0.000104358 0.00146865 5e-05 0.0252378 -0.0057601 -0.0873545 0 0 -5.1365e-09 
263 1 -0.000425042 -0.00012125 0.00161619 5e-05 -0.000356713 -0.0185024 -0.0698009 0 0 -5.1365e-09 
343 1 -0.000305686 -0.000156972 0.00155265 5e-05 -0.00916247 -0.000762347 -0.060019 0 0 -5.1365e-09 
43 1 -0.000214392 -0.000234732 0.0015648 5e-05 0.0187418 0.0229627 -0.0443383 0 0 -5.1365e-09 
80 1 -0.000209406 -0.00012831 0.00155296 5e-05 -0.0136284 0.00233978 -0.00697351 0 0 -5.1365e-09 
81 1 -0.000108714 -0.000234191 0.00155057 5e-05 0.00634525 -0.0118628 -0.00147726 0 0 -5.1365e-09 
309 1 -0.000118282 -0.00015619 0.00161305 5e-05 0.00709669 -0.0106905 -0.0162185 0 0 -5.1365e-09 
271 1 -0.000144252 -0.000222955 0.00168327 5e-05 -0.00738464 0.0059683 0.00120534 0 0 -5.1365e-09 
555 1 -2.81547e-05 -0.000168665 0.00155019 5e-05 0.00932161 0.00749163 -0.000116553 0 0 -5.1365e-09 
405 1 6.84077e-05 -0.00010361 0.00155086 5e-05 0.00320873 0.00643364 0.00373228 0 0 -5.1365e-09 
376 1 6.65965e-05 -0.00020364 0.00157525 5e-05 0.021117 -0.0145177 -0.0278198 0 0 -5.1365e-09 
20 1 8.05875e-05 -0.00013809 0.0016535 5e-05 -0.00608916 -0.0010826 -0.0370809 0 0 -5.1365e-09 
246 1 -3.2227e-05 -0.000143379 0.00166249 5e-05 0.00763393 -0.0105608 -0.0225628 0 0 -5.1365e-09 
414 1 0.00016123 -0.000166364 0.00155456 5e-05 -0.00645867 -0.010281 -0.0204776 0 0 -5.1365e-09 
293 1 0.000157368 -0.000216221 0.00164198 5e-05 -0.000832352 5.79339e-05 -0.00708974 0 0 -5.1365e-09 
510 1 0.000189728 -0.000117354 0.00163706 5e-05 0.0173768 0.00948875 -0.00328621 0 0 -5.1365e-09 
77 1 0.00026415 -7.95167e-05 0.00156233 5e-05 0.0168435 0.0391419 0.0477053 0 0 -5.1365e-09 
467 1 0.000387758 -8.47024e-05 0.00149089 5e-05 0.000863621 -0.010187 -0.0487585 0 0 -5.1365e-09 
149 1 0.000263507 -0.000180752 0.00155897 5e-05 -0.000403335 0.0304781 -0.0205297 0 0 -5.1365e-09 
190 1 0.000388687 -0.000163679 0.00164679 5e-05 0.0096616 0.0213383 0.00418792 0 0 -5.1365e-09 
69 1 0.000318094 -5.39513e-05 0.00164774 5e-05 0.0419963 -0.0407289 -0.0206618 0 0 -5.1365e-09 
233 1 0.000451661 -0.000135659 0.00156412 5e-05 -0.0100881 0.030691 -0.0785542 0 0 -5.1365e-09 
294 1 0.000551615 -0.000170684 0.00154074 5e-05 -0.026002 0.0422452 0.00468749 0 0 -5.1365e-09 
143 1 0.000592914 -0.000103198 0.00161534 5e-05 -0.0398133 0.00559287 -0.0300883 0 0 -5.1365e-09 
46 1 -0.000564033 -2.1848e-05 0.00156926 5e-05 0.00140661 -0.00730005 -0.0594722 0 0 -5.1365e-09 
111 1 -0.000586558 3.40168e-05 0.00148328 5e-05 0.021222 -0.02334 -0.0586353 0 0 -5.1365e-09 
506 1 -0.000471113 2.16622e-05 0.00145977 5e-05 -0.0131021 -0.0245431 -0.0896612 0 0 -5.1365e-09 
532 1 -0.000461844 -6.91893e-06 0.00155668 5e-05 0.00338726 0.019782 -0.0739885 0 0 -5.1365e-09 
397 1 -0.000381323 -6.65212e-05 0.00154257 5e-05 -0.00701938 -0.0121949 -0.0583093 0 0 -5.1365e-09 
431 1 -0.000280608 4.07163e-05 0.0014663 5e-05 -0.013819 -0.0130727 -0.0868021 0 0 -5.1365e-09 
329 1 -0.000350039 3.12222e-05 0.00154069 5e-05 -0.0105033 -0.00202754 -0.0781733 0 0 -5.1365e-09 
360 1 -0.000281253 -3.83277e-05 0.00159115 5e-05 -0.0244089 0.0249975 -0.0509595 0 0 -5.1365e-09 
40 1 -8.6357e-05 -8.24142e-05 0.00155002 5e-05 0.00238069 -0.000721068 0.00584093 0 0 -5.1365e-09 
484 1 -0.000155492 -5.92639e-05 0.00161924 5e-05 -0.0116683 -0.0199058 0.0132502 0 0 -5.1365e-09 
472 1 -0.000188786 4.92132e-06 0.00154866 5e-05 -0.0301901 -0.00220139 -0.0245835 0 0 -5.1365e-09 
557 1 -0.000212392 4.03637e-05 0.0016445 5e-05 -0.0240934 -0.0043173 -0.00527349 0 0 -5.1365e-09 
124 1 -2.72251e-06 -5.62891e-05 0.00160477 5e-05 -0.0057058 0.00367326 -0.00316832 0 0 -5.1365e-09 
359 1 -7.58046e-05 3.42816e-05 0.00158568 5e-05 -0.00299034 0.00770984 -0.0191531 0 0 -5.1365e-09 
446 1 2.26412e-05 3.45691e-05 0.00156056 5e-05 -0.00024921 0.0186573 0.00476441 0 0 -5.1365e-09 
440 1 2.28531e-05 1.94659e-05 0.00166694 5e-05 -0.00717043 -0.00576607 -0.00804582 0 0 -5.1365e-09 
98 1 0.000164166 -6.6108e-05 0.00155055 5e-05 0.0137812 0.00743373 -0.00249755 0 0 -5.1365e-09 
559 1 9.42726e-05 -3.23073e-05 0.00161623 5e-05 0.00598522 0.00396931 -0.0182469 0 0 -5.1365e-09 
158 1 0.000123171 4.1729e-05 0.001551 5e-05 0.00462611 -0.0020116 0.00947033 0 0 -5.1365e-09 
64 1 0.000206403 9.96167e-06 0.0016198 5e-05 0.0104696 0.0110779 0.00662471 0 0 -5.1365e-09 
216 1 0.000120196 5.12935e-05 0.00166876 5e-05 -7.12557e-05 0.0118702 0.00257693 0 0 -5.1365e-09 
304 1 0.000321069 4.04678e-06 0.00151529 5e-05 0.0199637 0.0145831 -0.0879425 0 0 -5.1365e-09 
512 1 0.000393964 -1.05358e-05 0.00159097 5e-05 -0.00286191 -0.00054254 -0.0848667 0 0 -5.1365e-09 