ITEM: TIMESTEP
28000
ITEM: NUMBER OF ATOMS
466
ITEM: BOX BOUNDS ff ff ff
-0.001 0.001
-0.001 0.001
0 0.004
ITEM: ATOMS id type x y z radius vx vy vz fx fy fz 
489 1 -1.7055e-05 -0.000236597 -3.17775e-05 5e-05 0.0301549 0.00159996 -0.118718 0 0 -5.1365e-09 
160 1 -0.000114483 -0.00022113 1.99185e-05 5e-05 0.0207611 0.0237169 -0.119756 1.90049e-06 6.74614e-06 4.46107e-06 
211 1 -8.77724e-05 0.000615611 0.00169501 5e-05 -0.0210231 0.0268924 -0.0251638 0 0 -5.1365e-09 
6 1 -0.000190477 -0.000153991 -9.59438e-06 5e-05 0.0139594 0.00523055 -0.131633 0 0 -5.1365e-09 
276 1 -0.000151541 0.000580251 0.00178605 5e-05 0.00595015 0.00262975 -0.0576796 0 0 -5.1365e-09 
281 1 6.88526e-05 -0.000181772 -1.03915e-05 5e-05 0.0299354 0.0468876 -0.148293 0 0 -5.1365e-09 
110 1 4.97192e-05 0.000396106 0.00168789 5e-05 -0.00942051 0.00310201 -0.0318571 0 0 -5.1365e-09 
291 1 0.000171689 -0.000184045 4.39445e-05 5e-05 0.0242616 -0.0449984 -0.142085 0 0 -5.1365e-09 
538 1 0.000115062 -6.52146e-05 -1.26336e-05 5e-05 -0.01337 0.045643 -0.104808 0 0 -5.1365e-09 
121 1 0.000216103 -0.000105887 -2.08067e-05 5e-05 0.0268608 -0.0193457 -0.0870371 0 0 -5.1365e-09 
542 1 -2.79375e-05 0.000456027 0.00173199 5e-05 -0.000926542 0.0119831 -0.0351032 0 0 -5.1365e-09 
421 1 -0.000183142 -4.23012e-05 -3.48353e-06 5e-05 0.0448016 0.0182651 -0.147609 0 0 -5.1365e-09 
95 1 -7.32917e-05 2.15811e-05 -8.97132e-07 5e-05 0.0136312 -0.011895 -0.134422 0 0 -5.1365e-09 
197 1 -0.000316698 0.000500328 0.0017205 5e-05 -0.0170798 0.00683484 -0.0454736 0 0 -5.1365e-09 
170 1 0.000148997 3.67582e-05 -4.42431e-05 5e-05 -0.0231245 -0.0249015 -0.151524 0 0 -5.1365e-09 
340 1 0.000241016 1.10775e-05 8.06495e-06 5e-05 -0.0678335 0.0208782 -0.0690635 0 0 -5.1365e-09 
488 1 -0.000164396 0.000274338 0.00170628 5e-05 -0.00963129 0.00690685 -0.00598934 0 0 -5.1365e-09 
347 1 -0.000112644 0.000149062 -1.93709e-06 5e-05 -0.0509654 -0.0479436 -0.15977 0 0 -5.1365e-09 
461 1 -0.000281296 0.00029134 0.00168677 5e-05 -0.010993 0.00604686 -0.0427003 0 0 -5.1365e-09 
483 1 -0.000378853 0.000328194 0.00171547 5e-05 -0.0163808 0.013472 -0.012488 0 0 -5.1365e-09 
454 1 0.000118216 0.000118833 4.70001e-05 5e-05 -0.0246934 0.0062387 -0.114892 1.92768e-06 1.28234e-06 -1.36977e-06 
261 1 0.000195665 0.000134926 -2.05341e-05 5e-05 -0.0130519 0.0248105 -0.0871934 0 0 -5.1365e-09 
560 1 -3.9846e-05 0.000221832 -2.50125e-05 5e-05 0.0397677 -0.012387 -0.101832 0 0 -5.1365e-09 
441 1 1.95453e-05 0.000231561 8.89179e-05 5e-05 -0.0256543 -0.0398806 -0.0775202 0 0 -5.1365e-09 
342 1 -5.07678e-05 -0.000258463 0.000144224 5e-05 0.0338988 0.00525019 -0.110378 0 0 -5.1365e-09 
473 1 0.000118068 -0.000254526 0.000168753 5e-05 0.0392697 0.0265762 -0.106235 0 0 -5.1365e-09 
387 1 -0.000159297 -0.000212009 0.000112858 5e-05 0.0375803 0.00997038 -0.0700242 0 0 -5.1365e-09 
214 1 -0.000113851 -0.000109191 4.87728e-05 5e-05 0.0194268 0.0615557 -0.125217 0 0 -5.1365e-09 
45 1 -0.000169902 -0.000115684 0.000160032 5e-05 0.0398652 0.0230591 -0.14806 0 0 -5.1365e-09 
165 1 -1.3457e-05 -0.000122382 0.00011605 5e-05 -0.00923341 0.0316615 -0.0892806 0 0 -5.1365e-09 
35 1 8.61386e-05 -0.000122744 6.90819e-05 5e-05 0.0401707 0.0179166 -0.113075 0 0 -5.1365e-09 
26 1 -0.000253937 -7.56938e-05 0.000100383 5e-05 -0.0107373 -0.0375167 -0.143616 0 0 -5.1365e-09 
320 1 -0.000203716 3.14516e-05 9.12722e-05 5e-05 -0.04649 -0.0223437 -0.1773 0 0 -5.1365e-09 
51 1 -5.94743e-05 -4.66967e-07 0.000103741 5e-05 -0.0300129 -0.00903649 -0.134057 0 0 -5.1365e-09 
305 1 5.14799e-05 4.56525e-05 5.98896e-05 5e-05 -0.00420148 0.0350275 -0.173685 -1.92768e-06 -1.28234e-06 1.35949e-06 
228 1 -6.68724e-05 -6.25431e-05 0.000204358 5e-05 0.000897463 -0.0136917 -0.0954053 0 0 -5.1365e-09 
496 1 0.00020595 -8.30643e-05 0.000128702 5e-05 0.0161664 -0.0241088 -0.145884 0 0 -5.1365e-09 
330 1 0.000146765 8.27796e-06 7.87654e-05 5e-05 0.00130658 0.0171233 -0.11019 0 0 -5.1365e-09 
447 1 0.000272213 5.72965e-05 0.000190663 5e-05 -0.0432895 -0.00930717 -0.0608688 0 0 -5.1365e-09 
224 1 -0.000211039 0.000146932 0.000204098 5e-05 -0.0133129 -0.00395545 -0.104929 0 0 -5.1365e-09 
140 1 -0.000149647 0.000196556 0.000140372 5e-05 -0.02794 -0.0210065 -0.119607 0 0 -5.1365e-09 
504 1 -4.44758e-05 0.00010007 6.32113e-05 5e-05 -0.0128226 -0.0135806 -0.110984 0 0 -5.1365e-09 
479 1 5.23056e-05 0.000106158 0.000144301 5e-05 -0.0154164 -0.0163693 -0.14079 0 0 -5.1365e-09 
346 1 0.000122627 0.000227828 9.69836e-05 5e-05 -0.0343872 0.0505073 -0.132906 0 0 -5.1365e-09 
84 1 0.000140344 0.000156126 0.000176844 5e-05 -0.0688905 -0.0342301 -0.0996351 0 0 -5.1365e-09 
287 1 0.00024596 8.57746e-05 7.73091e-05 5e-05 -0.046665 -0.00630196 -0.058275 0 0 -5.1365e-09 
256 1 -6.56723e-05 0.000258716 0.000164924 5e-05 0.0147651 -0.0288272 -0.072883 0 0 -5.1365e-09 
74 1 7.30204e-05 0.000267622 0.000195929 5e-05 0.00928999 -0.0100372 -0.0588367 0 0 -5.1365e-09 
168 1 4.49318e-05 -0.000221633 0.000242885 5e-05 0.0149002 0.0425924 -0.0853878 0 0 -5.1365e-09 
204 1 -2.32329e-05 -0.00027833 0.000293842 5e-05 -0.00576539 0.0108715 -0.122524 0 0 -5.1365e-09 
429 1 -0.000225764 -0.000146265 0.000284145 5e-05 0.0313727 0.0218466 -0.127036 0 0 -5.1365e-09 
227 1 -0.000144284 -0.000209413 0.000264337 5e-05 0.0163333 0.0153774 -0.136116 0 0 -5.1365e-09 
103 1 -0.000132308 -9.58346e-05 0.000312726 5e-05 0.00561014 0.0248193 -0.178695 0 0 -5.1365e-09 
312 1 -5.66043e-05 -0.000154395 0.000346178 5e-05 0.0339448 0.011181 -0.124995 0 0 -5.1365e-09 
455 1 1.12622e-05 -0.000128376 0.000267906 5e-05 -0.0104992 0.0277239 -0.107273 0 0 -5.1365e-09 
42 1 0.000182917 -0.00017802 0.000394345 5e-05 -0.0217465 0.0300713 -0.0880339 0 0 -5.1365e-09 
317 1 9.73473e-05 -0.000127459 0.000342596 5e-05 -0.059717 -0.0189133 -0.120453 0 0 -5.1365e-09 
159 1 0.000271106 -0.000132233 0.000349491 5e-05 0.00343854 0.0330785 -0.109088 0 0 -5.1365e-09 
438 1 -0.000267751 -3.24786e-05 0.00019616 5e-05 -0.00933488 -0.013379 -0.0992009 0 0 -5.1365e-09 
109 1 -0.000175062 4.69236e-05 0.000189387 5e-05 0.0284179 -0.0313676 -0.118278 0 0 -5.1365e-09 
506 1 -0.000200173 3.38236e-05 0.000309595 5e-05 0.00181369 0.000194426 -0.110852 0 0 -5.1365e-09 
431 1 -8.55714e-05 6.07009e-05 0.00027397 5e-05 -0.0212612 0.00262844 -0.131832 -8.65078e-07 -1.74978e-06 2.4377e-06 
3 1 4.67274e-05 -2.639e-05 0.000207299 5e-05 -0.0261787 0.0378415 -0.188117 0 0 -5.1365e-09 
155 1 2.27313e-06 -4.02418e-05 0.000319254 5e-05 -0.00998288 -0.0301654 -0.149323 0 0 -5.1365e-09 
100 1 1.46327e-05 6.41953e-05 0.000255766 5e-05 0.0162984 0.026041 -0.150931 0 0 -5.1365e-09 
325 1 0.000118413 -3.02133e-05 0.000289199 5e-05 -0.0105566 0.0210041 -0.118882 0 0 -5.1365e-09 
266 1 0.000200848 3.32152e-05 0.00027399 5e-05 0.0188583 0.0175417 -0.13098 0 0 -5.1365e-09 
226 1 -0.000287793 5.80587e-05 0.000246666 5e-05 0.00140396 -0.0258185 -0.0715786 0 0 -5.1365e-09 
181 1 -5.62199e-05 0.000107411 0.000190784 5e-05 0.00450644 -0.00487319 -0.170309 8.65078e-07 1.74978e-06 -2.44797e-06 
225 1 -5.7503e-06 0.000199918 0.000228711 5e-05 -0.0120625 0.0502306 -0.129298 0 0 -5.1365e-09 
34 1 5.92975e-05 0.000178392 0.000321014 5e-05 -0.0233168 -0.00853851 -0.0875856 0 0 -5.1365e-09 
476 1 -0.000109288 0.000277706 0.000268349 5e-05 -0.0410773 -0.0618848 -0.0958378 0 0 -5.1365e-09 
547 1 -4.59611e-05 0.000257931 0.000360978 5e-05 -0.00451635 -0.0450582 -0.0749452 0 0 -5.1365e-09 
244 1 0.000113849 0.000261081 0.000347159 5e-05 -0.0579983 -0.00275131 -0.0773312 0 0 -5.1365e-09 
191 1 -0.000151829 -0.000241229 0.000394856 5e-05 0.0714432 0.000236146 -0.0910471 0 0 -5.1365e-09 
9 1 6.1886e-05 -0.000311134 0.000383794 5e-05 0.0309419 0.0431218 -0.14137 0 0 -5.1365e-09 
536 1 1.42113e-05 -0.000208427 0.000408346 5e-05 0.00797764 -0.00981769 -0.0889036 0 0 -5.1365e-09 
107 1 9.44852e-05 -0.000186687 0.000469369 5e-05 -0.0420581 0.0702215 -0.0474642 0 0 -5.1365e-09 
337 1 -0.000223244 -0.000183406 0.000438452 5e-05 0.0380085 0.00044702 -0.0880067 0 0 -5.1365e-09 
355 1 -0.000222617 -8.42545e-05 0.000473013 5e-05 0.026821 0.0305353 -0.108087 0 0 -5.1365e-09 
397 1 -0.000117167 -0.000141466 0.000426749 5e-05 0.0364019 -0.00283054 -0.138324 0 0 -5.1365e-09 
296 1 0.000173987 -0.000111044 0.00050854 5e-05 -0.020387 0.0290202 -0.114131 0 0 -5.1365e-09 
467 1 0.000184002 -5.75423e-05 0.000367494 5e-05 0.00693142 0.0120982 -0.141756 0 0 -5.1365e-09 
258 1 0.000304786 -0.000109782 0.000495239 5e-05 -0.023577 0.00886981 -0.126574 0 0 -5.1365e-09 
351 1 -0.000339286 5.28512e-05 0.000445267 5e-05 0.0388333 -0.012544 -0.123542 0 0 -5.1365e-09 
329 1 -0.000116344 -2.29889e-05 0.000412824 5e-05 0.0187667 0.00479395 -0.139901 0 0 -5.1365e-09 
174 1 -0.000159545 8.66028e-05 0.000485941 5e-05 0.0036125 0.0357505 -0.127279 0 0 -5.1365e-09 
304 1 0.00010449 -1.89477e-05 0.000415274 5e-05 -0.0320497 -0.0343272 -0.137174 0 0 -5.1365e-09 
208 1 0.000330682 3.14888e-06 0.000365184 5e-05 -0.0304311 -0.00476405 -0.084564 0 0 -5.1365e-09 
512 1 0.000240476 1.64322e-05 0.000412317 5e-05 -0.0456864 0.0371322 -0.0702741 0 0 -5.1365e-09 
297 1 -0.000185124 0.000209192 0.000491995 5e-05 -0.0281917 -0.0138638 -0.168996 0 0 -5.1365e-09 
195 1 0.000184153 0.0001082 0.000354361 5e-05 -0.0443382 0.00597503 -0.154159 0 0 -5.1365e-09 
135 1 3.72059e-05 7.2443e-05 0.000381608 5e-05 -0.0534163 -0.0383246 -0.126095 0 0 -5.1365e-09 
205 1 0.000129759 0.000138912 0.000441112 5e-05 -0.0439733 0.0135095 -0.148423 0 0 -5.1365e-09 
282 1 0.000195384 0.00020816 0.000394163 5e-05 -0.0609501 -0.0335003 -0.085202 0 0 -5.1365e-09 
11 1 0.000297829 0.000147553 0.00044642 5e-05 0.00281033 0.00772802 -0.128204 0 0 -5.1365e-09 
502 1 -0.000115361 0.000305948 0.000444779 5e-05 -0.0333445 -0.0208796 -0.0974182 0 0 -5.1365e-09 
413 1 1.2965e-05 0.000318769 0.000462143 5e-05 -0.0557572 -0.0164737 -0.0870412 0 0 -5.1365e-09 
444 1 0.000234723 0.000246196 0.000523078 5e-05 -0.0353478 -0.0012591 -0.0362542 0 0 -5.1365e-09 
514 1 -0.00020076 -0.000267552 0.000553438 5e-05 0.0391025 0.0158808 -0.0821832 0 0 -5.1365e-09 
29 1 -0.000248539 -0.000268732 0.000663595 5e-05 0.0271901 -0.00119495 -0.123502 0 0 -5.1365e-09 
400 1 -0.000101303 -0.000339321 0.000553767 5e-05 0.0534617 -0.0182633 -0.105448 0 0 -5.1365e-09 
113 1 1.7338e-06 -0.000359448 0.000658566 5e-05 0.0661547 0.00672147 -0.0895878 0 0 -5.1365e-09 
382 1 0.000145904 -0.000290845 0.000627112 5e-05 0.00478109 0.0206207 -0.141012 0 0 -5.1365e-09 
83 1 -0.000315434 -0.000192468 0.000669397 5e-05 0.0253122 0.0126566 -0.106111 0 0 -5.1365e-09 
532 1 -0.000254622 -0.000125989 0.000569797 5e-05 0.00874177 0.0202294 -0.13278 0 0 -5.1365e-09 
295 1 -9.67028e-05 -0.000211923 0.000510436 5e-05 0.0557803 0.00755003 -0.137543 0 0 -5.1365e-09 
82 1 -0.000128205 -0.000156371 0.000630341 5e-05 0.0226531 -0.0462805 -0.104362 0 0 -5.1365e-09 
316 1 4.97119e-05 -6.85288e-05 0.000669911 5e-05 -0.0466211 0.0211866 -0.117588 0 0 -5.1365e-09 
215 1 0.000285899 -0.000149632 0.000623 5e-05 -0.0139524 0.00423506 -0.127581 0 0 -5.1365e-09 
111 1 -0.000355775 -5.07326e-05 0.000554184 5e-05 0.013015 -0.00335261 -0.144318 0 0 -5.1365e-09 
179 1 -0.00022365 -1.11816e-05 0.000541455 5e-05 0.0274836 0.0464418 -0.105265 0 0 -5.1365e-09 
233 1 0.000162054 6.70451e-06 0.000513741 5e-05 -0.0311383 0.0211555 -0.162483 0 0 -5.1365e-09 
408 1 -0.000311694 5.91107e-05 0.000607719 5e-05 0.0355583 -0.0451902 -0.106333 0 0 -5.1365e-09 
394 1 -9.38089e-05 0.000160808 0.000620752 5e-05 0.0398395 -0.00930157 -0.129305 0 0 -5.1365e-09 
371 1 8.34971e-05 0.000213331 0.000518123 5e-05 -0.0298536 0.00115212 -0.147029 0 0 -5.1365e-09 
175 1 0.000321985 0.000165292 0.000614589 5e-05 -0.0128647 -0.0137037 -0.123995 0 0 -5.1365e-09 
72 1 0.000200528 0.000175451 0.000635207 5e-05 -0.0458447 -0.0438565 -0.135662 0 0 -5.1365e-09 
218 1 -0.000115164 0.000263044 0.000560628 5e-05 0.0294814 -0.0432821 -0.0522379 0 0 -5.1365e-09 
290 1 0.000211217 0.000301728 0.000705875 5e-05 -0.0455723 -0.0206785 -0.0695837 0 0 -5.1365e-09 
548 1 -5.72527e-05 0.00035812 0.000691832 5e-05 0.00792808 -0.0450148 -0.0869257 0 0 -5.1365e-09 
68 1 -5.58535e-05 -0.00035605 0.000744765 5e-05 0.0515941 -0.0154456 -0.0922085 0 0 -5.1365e-09 
336 1 -0.000169774 -0.000217504 0.000742491 5e-05 0.016128 0.037664 -0.109993 0 0 -5.1365e-09 
368 1 -1.58094e-06 -0.00028829 0.000801543 5e-05 0.0608238 0.0235462 -0.105523 0 0 -5.1365e-09 
553 1 0.000189442 -0.000324264 0.000835642 5e-05 0.00814765 0.0393323 -0.105827 0 0 -5.1365e-09 
298 1 0.000267371 -0.000228133 0.000802789 5e-05 -0.0454439 0.0295469 -0.10351 0 0 -5.1365e-09 
46 1 -0.000368438 -8.83464e-05 0.00075214 5e-05 0.0564724 0.0190262 -0.0870801 0 0 -5.1365e-09 
237 1 -0.000321235 -0.000235987 0.000765875 5e-05 0.0300412 -0.010755 -0.0997137 0 0 -5.1365e-09 
63 1 -0.000305802 -0.000151408 0.000817965 5e-05 0.05287 -0.00286076 -0.116966 0 0 -5.1365e-09 
263 1 -0.000162237 -6.29764e-05 0.000835394 5e-05 0.0383109 0.0330885 -0.0985913 0 0 -5.1365e-09 
343 1 -3.5036e-05 -0.000104102 0.000722897 5e-05 0.0343975 0.0083919 -0.110116 0 0 -5.1365e-09 
166 1 0.000345831 -0.000174423 0.000767815 5e-05 0.0124166 0.0234208 -0.0944839 0 0 -5.1365e-09 
339 1 -0.000364727 5.90412e-05 0.000710369 5e-05 0.0244907 -0.00643847 -0.113544 0 0 -5.1365e-09 
360 1 -0.000275497 1.11811e-06 0.000685303 5e-05 0.0342325 0.00925546 -0.123745 0 0 -5.1365e-09 
80 1 -0.000234448 2.93722e-06 0.000804071 5e-05 0.0084046 -0.0192818 -0.138489 0 0 -5.1365e-09 
465 1 0.000211658 -4.46699e-05 0.000730239 5e-05 -0.0571962 -0.0108441 -0.125106 0 0 -5.1365e-09 
27 1 0.000351291 -7.58392e-05 0.000699587 5e-05 -0.0487529 -0.00421147 -0.10876 0 0 -5.1365e-09 
194 1 0.000402794 2.37097e-05 0.000737216 5e-05 -0.0207713 -0.0280204 -0.0857227 0 0 -5.1365e-09 
267 1 -0.00033073 0.00012154 0.000826048 5e-05 0.0282425 -0.000550493 -0.11605 0 0 -5.1365e-09 
76 1 -0.000203397 0.000133395 0.000823563 5e-05 0.0254263 -0.0358159 -0.125339 0 0 -5.1365e-09 
494 1 -0.000105006 0.000197345 0.000718159 5e-05 -0.0100698 -0.0304909 -0.0797211 0 0 -5.1365e-09 
272 1 0.000182867 8.41011e-05 0.000684149 5e-05 -0.0161148 -0.0205765 -0.131774 0 0 -5.1365e-09 
458 1 0.000142407 0.000142701 0.000779672 5e-05 -0.0346838 -0.0175343 -0.128691 0 0 -5.1365e-09 
515 1 0.000206873 4.58252e-05 0.000791139 5e-05 -0.0395707 -0.0368702 -0.114644 0 0 -5.1365e-09 
21 1 0.000334811 9.26375e-05 0.000790387 5e-05 -0.0669421 0.0042711 -0.0934852 0 0 -5.1365e-09 
419 1 0.000342674 0.00020822 0.000773629 5e-05 -0.0476615 -0.01766 -0.0628778 -5.01934e-07 -1.72793e-08 6.84018e-09 
88 1 -0.000222497 0.00022649 0.000718259 5e-05 0.000313145 -0.042889 -0.112438 0 0 -5.1365e-09 
66 1 0.000111853 0.000249678 0.00084499 5e-05 -0.0615148 -0.0509482 -0.092225 0 0 -5.1365e-09 
391 1 0.000189181 0.000344589 0.000808499 5e-05 -0.0321854 -0.0249667 -0.0733493 0 0 -5.1365e-09 
516 1 -0.000169857 -0.00042395 0.000977185 5e-05 0.0321674 0.0119223 -0.0790322 0 0 -5.1365e-09 
283 1 -0.000103097 -0.000425246 0.000902266 5e-05 0.0417739 -0.00703223 -0.0952314 0 0 -5.1365e-09 
207 1 5.39238e-05 -0.000377003 0.000887547 5e-05 0.00118351 0.0297266 -0.101597 0 0 -5.1365e-09 
112 1 -0.000149871 -0.000337375 0.000891395 5e-05 0.0167022 0.0250992 -0.124694 0 0 -5.1365e-09 
43 1 -0.000112833 -0.000241084 0.000912201 5e-05 0.0131689 0.013258 -0.110009 0 0 -5.1365e-09 
430 1 -0.000371053 -0.000236518 0.000917118 5e-05 0.0215212 -0.00959612 -0.0994081 0 0 -5.1365e-09 
18 1 -0.000240588 -0.00021036 0.00088049 5e-05 0.0327007 0.0111787 -0.118736 0 0 -5.1365e-09 
333 1 -0.000300273 -9.73269e-05 0.000957394 5e-05 0.0296516 0.00274716 -0.12067 0 0 -5.1365e-09 
131 1 0.000135196 -0.000208606 0.000963706 5e-05 -0.00678974 0.0201539 -0.108051 0 0 -5.1365e-09 
345 1 0.000276124 -0.000123877 0.000875564 5e-05 -0.0274141 -0.0228003 -0.112271 0 0 -5.1365e-09 
236 1 0.000409001 -0.000182357 0.000966676 5e-05 0.0220348 0.0288902 -0.107579 0 0 -5.1365e-09 
294 1 0.000413961 -0.000105083 0.000896232 5e-05 -0.0101731 -0.00651701 -0.111845 0 0 -5.1365e-09 
184 1 -0.000412024 6.6015e-05 0.000889031 5e-05 0.0349593 0.00652771 -0.0904829 0 0 -5.1365e-09 
409 1 -0.000407604 -5.72516e-05 0.000980147 5e-05 0.0330147 -0.0358083 -0.0889235 0 0 -5.1365e-09 
334 1 -0.000346537 -3.77622e-05 0.000868668 5e-05 0.0262621 0.0278057 -0.0992705 0 0 -5.1365e-09 
568 1 0.00025665 3.09796e-06 0.000914465 5e-05 -0.0222125 -0.0191427 -0.125109 0 0 -5.1365e-09 
143 1 0.000376895 -1.34908e-05 0.000962379 5e-05 -0.0212728 0.00695989 -0.113768 0 0 -5.1365e-09 
210 1 -0.000339074 0.000200985 0.000920528 5e-05 0.0250876 -0.0285621 -0.0827256 0 0 -5.1365e-09 
120 1 0.000256841 0.00017301 0.000819625 5e-05 -0.0413492 -0.0276496 -0.126877 0 0 -5.1365e-09 
466 1 0.000300032 0.000132424 0.000903634 5e-05 -0.0343653 -0.0293755 -0.127767 0 0 -5.1365e-09 
44 1 0.000400933 0.000153229 0.000888169 5e-05 -0.0413489 -0.00776141 -0.0743913 0 0 -5.1365e-09 
435 1 -0.000168191 0.00038054 0.000858775 5e-05 0.0228494 -0.00147009 -0.105354 0 0 -5.1365e-09 
273 1 -0.00019509 0.000249113 0.000844353 5e-05 0.0297694 0.0188003 -0.122963 0 0 -5.1365e-09 
134 1 -7.6556e-06 0.000279857 0.000819403 5e-05 -0.0281402 -0.0060334 -0.125157 0 0 -5.1365e-09 
71 1 0.000209227 0.000335489 0.000954245 5e-05 -0.0223895 -0.0319622 -0.085294 0 0 -5.1365e-09 
16 1 0.00033656 0.00026182 0.000942608 5e-05 -0.027453 -0.00158203 -0.0857145 0 0 -5.1365e-09 
450 1 8.04915e-05 0.000374849 0.000914389 5e-05 -0.0401779 -0.024089 -0.0879563 0 0 -5.1365e-09 
67 1 -7.79185e-05 -0.00046047 0.0011498 5e-05 0.0223876 0.0155482 -0.0810052 0 0 -5.1365e-09 
373 1 0.000187128 -0.000445349 0.00105877 5e-05 0.000430832 0.0166237 -0.0981344 0 0 -5.1365e-09 
545 1 0.000281428 -0.000410574 0.00113882 5e-05 0.00150944 0.0186158 -0.0913608 0 0 -5.1365e-09 
417 1 -0.000322624 -0.000332408 0.00105392 5e-05 0.0293068 0.0105559 -0.0745184 0 0 -5.1365e-09 
399 1 -0.000340373 -0.000369278 0.00117421 5e-05 0.0164465 0.0120399 -0.0617995 0 0 -5.1365e-09 
395 1 -0.000313233 -0.000243429 0.00111961 5e-05 0.030206 0.0446874 -0.0798493 0 0 -5.1365e-09 
99 1 -0.000214389 -0.000351862 0.0010701 5e-05 0.0330918 -0.005238 -0.0967732 0 0 -5.1365e-09 
188 1 0.000170535 -0.000306397 0.00101416 5e-05 -0.0186542 0.0320422 -0.0868553 0 0 -5.1365e-09 
511 1 0.000252849 -0.000270719 0.00110105 5e-05 0.00724937 0.026665 -0.101124 0 0 -5.1365e-09 
118 1 0.000375792 -0.000284769 0.00113901 5e-05 -0.00413893 0.0307546 -0.0714331 0 0 -5.1365e-09 
31 1 -0.00042495 -0.000161026 0.00100018 5e-05 0.00819522 0.0254045 -0.0972377 0 0 -5.1365e-09 
470 1 -0.000415633 -0.000220687 0.00110618 5e-05 0.0135109 -0.00167459 -0.0816537 0 0 -5.1365e-09 
527 1 -0.000330522 -0.000105701 0.00113814 5e-05 0.0215622 -0.0130829 -0.102685 0 0 -5.1365e-09 
269 1 -0.000325297 -0.000168513 0.00104457 5e-05 0.0165435 0.0131009 -0.115151 0 0 -5.1365e-09 
270 1 -0.000249221 -7.70945e-05 0.00107458 5e-05 0.0256065 0.00906186 -0.109148 0 0 -5.1365e-09 
154 1 -0.000209291 -0.000218101 0.00112843 5e-05 0.0509797 0.00537622 -0.0957163 0 0 -5.1365e-09 
338 1 -0.000447283 -7.76418e-05 0.00110584 5e-05 0.0107095 -0.0101015 -0.0909406 0 0 -5.1365e-09 
189 1 0.000325647 5.60806e-05 0.00102461 5e-05 -0.0370215 -0.0138382 -0.105798 0 0 -5.1365e-09 
407 1 0.000469793 1.22212e-05 0.00101653 5e-05 -0.0198848 -0.0182394 -0.0847431 0 0 -5.1365e-09 
280 1 -0.000288397 0.000152117 0.00109049 5e-05 1.4403e-05 -0.0384186 -0.0894376 0 0 -5.1365e-09 
164 1 0.000233492 0.00021955 0.000987423 5e-05 -0.0324432 -0.0064521 -0.121133 0 0 -5.1365e-09 
520 1 0.000417644 0.000200144 0.00100625 5e-05 -0.0452283 -0.0159574 -0.0947044 0 0 -5.1365e-09 
223 1 -0.000409606 0.000252749 0.0010796 5e-05 -0.0116951 -0.04014 -0.0827019 0 0 -5.1365e-09 
56 1 -0.00017878 0.000363719 0.00109175 5e-05 0.0185453 0.00715597 -0.0634472 0 0 -5.1365e-09 
418 1 0.000309493 0.000340353 0.00104294 5e-05 -0.029653 -0.0096288 -0.0705994 0 0 -5.1365e-09 
176 1 0.000285507 0.000254725 0.00111577 5e-05 -0.00203501 -0.0176264 -0.105843 0 0 -5.1365e-09 
173 1 -9.97337e-05 0.000480072 0.00110952 5e-05 0.0100314 -0.0170667 -0.0788431 0 0 -5.1365e-09 
106 1 3.40732e-05 0.00047621 0.00115127 5e-05 -0.0146205 -0.0142073 -0.0851725 0 0 -5.1365e-09 
7 1 0.000135463 0.000469432 0.0010898 5e-05 -0.0087179 -0.0193299 -0.0938991 0 0 -5.1365e-09 
265 1 0.00022014 0.00042251 0.00101622 5e-05 -0.0181179 -0.00872916 -0.102533 0 0 -5.1365e-09 
566 1 0.000289366 0.000413111 0.00116448 5e-05 -0.0143377 -0.0267238 -0.0644364 0 0 -5.1365e-09 
335 1 -0.000200543 -0.000373528 0.00127775 5e-05 0.0119718 0.0134885 -0.0771367 0 0 -5.1365e-09 
14 1 0.00019088 -0.000504801 0.00126902 5e-05 -0.00926393 0.0313863 -0.0490358 0 0 -5.1365e-09 
357 1 -0.000442623 -0.000292526 0.00125889 5e-05 0.0283637 -0.0031281 -0.0763315 0 0 -5.1365e-09 
286 1 -0.000241736 -0.000317802 0.00118767 5e-05 0.0333024 0.028705 -0.0922405 0 0 -5.1365e-09 
396 1 -0.000374213 -0.00038176 0.00128724 5e-05 0.0383401 0.0278746 -0.0399373 0 0 -5.1365e-09 
185 1 -0.000343191 -0.000270967 0.00130196 5e-05 0.0145193 -0.0121005 -0.0784964 0 0 -5.1365e-09 
544 1 -0.000144257 -0.000288033 0.00126031 5e-05 0.0260577 0.00627215 -0.0757837 0 0 -5.1365e-09 
203 1 0.000245067 -0.000317107 0.00130138 5e-05 0.00996011 0.0137032 -0.0815702 0 0 -5.1365e-09 
495 1 -0.00051201 -7.46642e-05 0.00129217 5e-05 0.00359735 0.0204743 -0.0503094 0 0 -5.1365e-09 
137 1 -0.000440022 -0.00015217 0.00122135 5e-05 0.000327256 0.00220359 -0.0897448 0 0 -5.1365e-09 
262 1 -0.000344288 -0.000212084 0.00121866 5e-05 0.0103411 0.00933674 -0.0819262 0 0 -5.1365e-09 
484 1 -0.000226576 -0.000183365 0.00122315 5e-05 0.0161772 -0.00690668 -0.0836943 0 0 -5.1365e-09 
15 1 -0.000327219 -0.000126847 0.00126965 5e-05 0.0201159 0.00651576 -0.0721966 0 0 -5.1365e-09 
518 1 0.000509295 -0.000211986 0.0013272 5e-05 -0.00397768 0.0126802 -0.0669105 0 0 -5.1365e-09 
145 1 -0.000511735 2.54307e-05 0.00128552 5e-05 0.0178417 -0.000360006 -0.0643278 0 0 -5.1365e-09 
58 1 -0.000386089 -7.34152e-06 0.00124618 5e-05 0.0405283 0.010128 -0.0890313 0 0 -5.1365e-09 
77 1 0.000203301 5.66144e-05 0.00122374 5e-05 -0.0186214 0.00770742 -0.0799597 0 0 -5.1365e-09 
69 1 0.000354377 -5.52198e-05 0.00125591 5e-05 -0.0162379 -0.0259887 -0.0789611 0 0 -5.1365e-09 
198 1 0.000515205 -4.50013e-06 0.00117114 5e-05 -0.0103684 -0.0122748 -0.0820013 0 0 -5.1365e-09 
327 1 0.000530936 7.13882e-05 0.0012797 5e-05 -0.024901 0.00668101 -0.0522841 0 0 -5.1365e-09 
426 1 0.000330544 8.59252e-05 0.00120001 5e-05 -0.00670199 -0.0119464 -0.0970935 0 0 -5.1365e-09 
451 1 0.000292123 0.000216125 0.00121571 5e-05 -0.0241441 0.00148184 -0.106272 0 0 -5.1365e-09 
500 1 0.000444994 9.56763e-05 0.00115827 5e-05 -0.0166392 0.0207208 -0.115685 0 0 -5.1365e-09 
404 1 0.00041651 0.000138044 0.0012563 5e-05 0.000707198 -0.0434383 -0.0862449 0 0 -5.1365e-09 
522 1 -0.000344662 0.000354711 0.00116955 5e-05 -0.00305641 -0.0152079 -0.0832889 0 0 -5.1365e-09 
163 1 -0.000194629 0.000367854 0.0013059 5e-05 -0.00551639 -0.00938171 -0.0835017 0 0 -5.1365e-09 
161 1 0.000189873 0.000227452 0.00116473 5e-05 -0.0271697 -0.0188918 -0.0696392 0 0 -5.1365e-09 
8 1 0.000217669 0.000326389 0.00116216 5e-05 -0.0302661 -0.0197077 -0.0892027 0 0 -5.1365e-09 
1 1 0.00024242 0.000318451 0.00130388 5e-05 -0.0277019 -0.0181741 -0.0765936 0 0 -5.1365e-09 
234 1 0.000373988 0.000349506 0.00124296 5e-05 -0.00219848 -0.0188793 -0.0897412 0 0 -5.1365e-09 
105 1 0.000420571 0.000227373 0.00116777 5e-05 -0.0249014 -0.0164374 -0.0800351 0 0 -5.1365e-09 
540 1 -0.000266743 0.000445115 0.00120455 5e-05 -0.00231422 -0.0168664 -0.0787009 0 0 -5.1365e-09 
565 1 -0.000362819 0.000392597 0.0012831 5e-05 -0.0175011 0.00113994 -0.0760605 0 0 -5.1365e-09 
486 1 -0.000126456 0.000414584 0.00118663 5e-05 0.00974772 -0.0129518 -0.0918725 0 0 -5.1365e-09 
571 1 -7.30572e-05 0.000512887 0.00122218 5e-05 -0.00747543 -0.0153405 -0.0731871 0 0 -5.1365e-09 
187 1 0.000299486 0.000428697 0.00126651 5e-05 -0.00677492 -0.017112 -0.066499 0 0 -5.1365e-09 
556 1 -0.000163283 -0.000542475 0.00139814 5e-05 0.00209605 0.0149682 -0.0445699 0 0 -5.1365e-09 
375 1 -9.65884e-06 -0.000570249 0.00152352 5e-05 -0.00680271 -0.00767775 -0.0186109 0 0 -5.1365e-09 
416 1 -0.000343608 -0.000439673 0.0013721 5e-05 -0.0215429 0.00674674 -0.0654634 0 0 -5.1365e-09 
2 1 -0.000330945 -0.000398839 0.0014757 5e-05 -0.0162687 0.020252 -0.0399071 0 0 -5.1365e-09 
85 1 -0.000222433 -0.000460139 0.00140424 5e-05 0.00515256 0.0226466 -0.0612975 0 0 -5.1365e-09 
452 1 0.000154196 -0.000535309 0.00146643 5e-05 -0.0059067 -0.00158647 -0.0517986 0 0 -5.1365e-09 
361 1 0.000300453 -0.000392325 0.00149439 5e-05 -0.00629123 -0.0014732 -0.0262929 0 0 -5.1365e-09 
478 1 0.000225094 -0.000451839 0.00143891 5e-05 -0.00780726 0.00518716 -0.0565169 0 0 -5.1365e-09 
513 1 0.000338368 -0.000484193 0.00150719 5e-05 -0.0116867 0.0121821 -0.0274894 0 0 -5.1365e-09 
38 1 -0.000485254 -0.000233677 0.00140441 5e-05 0.0323167 0.0237536 -0.0309662 0 0 -5.1365e-09 
531 1 -0.000420012 -0.000268777 0.00147553 5e-05 -0.0093751 0.0308776 -0.0680063 0 0 -5.1365e-09 
138 1 -0.000341165 -0.000337696 0.00138782 5e-05 0.00616363 0.0148792 -0.0715096 0 0 -5.1365e-09 
271 1 -0.000254566 -0.000265098 0.00143083 5e-05 -0.0267589 0.00861058 -0.0567148 0 0 -5.1365e-09 
167 1 -0.000232518 -0.000376366 0.00147873 5e-05 -0.0183865 -0.00229722 -0.0390101 0 0 -5.1365e-09 
255 1 0.00046548 -0.000309615 0.00138875 5e-05 -0.00304045 0.0169472 -0.0503412 0 0 -5.1365e-09 
370 1 -0.000540679 -0.000137381 0.00138323 5e-05 -0.0159838 -0.00926526 -0.0751468 0 0 -5.1365e-09 
567 1 -0.000335028 -0.00015771 0.00137501 5e-05 -0.0139498 0.0111592 -0.0914538 0 0 -5.1365e-09 
309 1 -0.000193976 -0.000195636 0.00151403 5e-05 -0.0186893 -0.00288666 -0.0237182 0 0 -5.1365e-09 
93 1 0.000538426 -9.92242e-05 0.00136584 5e-05 -0.00479382 0.0177427 -0.0603101 0 0 -5.1365e-09 
519 1 0.000529983 -0.000191773 0.00147329 5e-05 -0.00310994 0.0139043 -0.0445926 0 0 -5.1365e-09 
62 1 0.000546801 -7.29895e-05 0.00150016 5e-05 -0.0320763 0.0120645 -0.0342475 0 0 -5.1365e-09 
275 1 -0.000570268 -2.04947e-05 0.00145961 5e-05 0.0207679 -0.00538164 -0.0479319 0 0 -5.1365e-09 
364 1 -0.000428473 -1.5531e-05 0.00140272 5e-05 -0.0150389 -0.0160934 -0.0546203 0 0 -5.1365e-09 
171 1 -0.000489713 -8.08981e-05 0.00147372 5e-05 0.0217672 -0.0144777 -0.0699609 0 0 -5.1365e-09 
472 1 -0.000329847 -7.87777e-06 0.00142526 5e-05 -0.0116193 0.00506685 -0.0526077 0 0 -5.1365e-09 
386 1 0.000409225 -4.82809e-05 0.00146543 5e-05 -0.00178107 0.00552417 -0.0410906 0 0 -5.1365e-09 
443 1 0.000391596 8.62699e-05 0.00141035 5e-05 -0.0188163 0.00946363 -0.0752207 0 0 -5.1365e-09 
190 1 0.000478647 3.52812e-05 0.00144649 5e-05 -0.0121456 0.0253486 -0.0579948 0 0 -5.1365e-09 
264 1 0.000579091 1.63963e-05 0.0014569 5e-05 -0.0170014 0.00842645 -0.0370377 0 0 -5.1365e-09 
19 1 -0.000550701 0.0002153 0.00150514 5e-05 0.0028941 -0.00699026 -0.0214361 0 0 -5.1365e-09 
245 1 -0.000520672 0.000109219 0.0014151 5e-05 0.0139643 -0.0113578 -0.0469019 0 0 -5.1365e-09 
64 1 0.000275758 0.000162325 0.00132008 5e-05 0.00337598 0.0100896 -0.0825978 0 0 -5.1365e-09 
349 1 0.000325701 0.00019218 0.00141075 5e-05 0.00925595 0.010153 -0.0751704 0 0 -5.1365e-09 
307 1 0.000471471 0.00011965 0.00134593 5e-05 -0.00653777 0.0228888 -0.0772697 0 0 -5.1365e-09 
94 1 0.000528155 0.000200934 0.00139483 5e-05 -0.0276216 -0.0302801 -0.0475665 0 0 -5.1365e-09 
146 1 0.000430668 0.00017716 0.00143946 5e-05 0.00330833 -0.00175898 -0.0502863 0 0 -5.1365e-09 
303 1 0.000216466 0.000279035 0.00145372 5e-05 -0.0193518 0.0090856 -0.0586464 0 0 -5.1365e-09 
380 1 0.000362441 0.000270215 0.00134125 5e-05 -0.0160745 -0.0033068 -0.0749981 0 0 -5.1365e-09 
415 1 0.00029506 0.000353888 0.00146223 5e-05 0.00412328 0.0117144 -0.057877 0 0 -5.1365e-09 
539 1 0.000427977 0.000352571 0.00134256 5e-05 -0.0242046 0.00612982 -0.0631166 0 0 -5.1365e-09 
221 1 0.000465608 0.000272048 0.00144102 5e-05 0.002713 0.00330393 -0.0680233 0 0 -5.1365e-09 
147 1 0.00041318 0.000342337 0.00150217 5e-05 -0.00147819 0.000870151 -0.0210098 0 0 -5.1365e-09 
505 1 -0.000441916 0.000392888 0.00148316 5e-05 -0.00170558 -0.00102513 0.00382531 -5.58018e-09 -3.05195e-09 1.32391e-08 
561 1 -0.00031001 0.000464233 0.00138161 5e-05 0.00201887 -0.00825313 -0.0630987 0 0 -5.1365e-09 
39 1 -0.000311594 0.000402723 0.00146629 5e-05 0.00353621 -0.00099786 -0.0519361 0 0 -5.1365e-09 
403 1 -0.000289409 0.000502545 0.00150359 5e-05 0.021182 -0.000448668 -0.0358351 0 0 -5.1365e-09 
125 1 -0.0002131 0.000463217 0.00135412 5e-05 0.00364031 -0.00133247 -0.0868943 0 0 -5.1365e-09 
498 1 0.000203127 0.000395467 0.00150106 5e-05 0.0105914 0.00301129 -0.0289604 0 0 -5.1365e-09 
260 1 0.000239187 0.000488802 0.00134567 5e-05 -0.0227166 -0.0234921 -0.0476468 0 0 -5.1365e-09 
177 1 0.000289359 0.000451395 0.00148522 5e-05 0.0120933 -0.00527741 -0.0643056 0 0 -5.1365e-09 
439 1 -0.000184936 0.000549162 0.00147284 5e-05 -0.00395652 -0.0080032 -0.0463646 0 0 -5.1365e-09 
119 1 -6.74412e-05 0.000592242 0.0015324 5e-05 0.00512743 0.00156968 -0.00411101 0 0 -5.1365e-09 
525 1 2.99181e-05 0.000581741 0.00149055 5e-05 0.00192583 -0.0127879 -0.0281843 0 0 -5.1365e-09 
79 1 0.00013656 0.000558134 0.00145381 5e-05 0.00542491 -0.0210532 -0.0202807 0 0 -5.1365e-09 
517 1 0.000227661 0.000544418 0.00149348 5e-05 0.0118883 -0.00939321 -0.0454586 0 0 -5.1365e-09 
206 1 -0.000178113 -0.000561245 0.00163144 5e-05 -0.0208374 0.00627146 -0.0338476 0 0 -5.1365e-09 
200 1 -7.59833e-05 -0.00060642 0.00159934 5e-05 -0.00328513 0.00238339 -0.00503967 0 0 -5.1365e-09 
398 1 5.83435e-05 -0.000617133 0.00163058 5e-05 -0.00288277 -0.00613904 -0.0422057 0 0 -5.1365e-09 
569 1 9.69714e-05 -0.000585398 0.00153813 5e-05 0.0145673 -0.0223635 0.00998877 0 0 -5.1365e-09 
341 1 0.000249088 -0.000536717 0.00151973 5e-05 -0.015618 0.00447674 -0.0279142 0 0 -5.1365e-09 
533 1 -0.000242652 -0.000529732 0.00153234 5e-05 0.012389 0.00710743 -0.0438861 0 0 -5.1365e-09 
288 1 -0.000247753 -0.000432863 0.0015748 5e-05 0.00615356 0.0244518 -0.0579177 0 0 -5.1365e-09 