ITEM: TIMESTEP
16000
ITEM: NUMBER OF ATOMS
571
ITEM: BOX BOUNDS ff ff ff
-0.001 0.001
-0.001 0.001
0 0.004
ITEM: ATOMS id type x y z radius vx vy vz fx fy fz 
526 1 0.000286064 -0.000282311 0.000793299 5e-05 -0.0349341 0.0214188 -0.129908 0 0 -5.1365e-09 
209 1 -0.000230476 7.32168e-05 0.000651281 5e-05 0.0181101 -0.0378152 -0.195166 0 0 -5.1365e-09 
252 1 -0.00033425 0.000160067 0.000742507 5e-05 0.00470089 -0.00667097 -0.17951 0 0 -5.1365e-09 
529 1 0.000154052 0.000318235 0.000812134 5e-05 -0.0383846 -0.0740935 -0.0873753 0 0 -5.1365e-09 
453 1 -0.00019063 -0.000365078 0.000935597 5e-05 0.0382751 0.0272204 -0.107492 0 0 -5.1365e-09 
551 1 3.92437e-05 -0.000388571 0.000794924 5e-05 -0.0539227 0.0930499 -0.0739943 0 0 -5.1365e-09 
328 1 0.00012431 -0.000380602 0.000882301 5e-05 0.0123244 0.0113126 -0.121576 0 0 -5.1365e-09 
242 1 -3.05447e-05 -0.000245749 0.000851955 5e-05 0.0697022 0.0314788 -0.151207 0 0 -5.1365e-09 
73 1 0.00022144 -0.000369313 0.000940623 5e-05 -0.0116327 0.00846284 -0.129938 0 0 -5.1365e-09 
322 1 0.000206213 -0.0002283 0.000928497 5e-05 -0.0291906 0.0184057 -0.15652 0 0 -5.1365e-09 
199 1 0.000312166 -0.000219551 0.000954602 5e-05 -0.0595974 0.0442065 -0.105211 0 0 -5.1365e-09 
250 1 7.06863e-05 -0.000189387 0.000917594 5e-05 -0.0443889 0.0344819 -0.15634 0 0 -5.1365e-09 
36 1 0.000147857 -0.000125307 0.00093392 5e-05 -0.0490455 0.0443417 -0.140499 0 0 -5.1365e-09 
318 1 0.00031333 -0.000191848 0.000848968 5e-05 -0.0586855 0.039536 -0.117598 0 0 -5.1365e-09 
24 1 0.000416366 -0.000165349 0.000947494 5e-05 -0.0149589 0.00779483 -0.130049 0 0 -5.1365e-09 
468 1 -0.000436117 -1.12921e-05 0.000847119 5e-05 0.0061956 -0.0453706 -0.111784 0 0 -5.1365e-09 
182 1 -0.000318797 4.0118e-05 0.000845333 5e-05 0.060596 -0.0419603 -0.181266 0 0 -5.1365e-09 
490 1 0.000369195 -5.82856e-05 0.000858576 5e-05 -0.0512664 0.0141768 -0.131095 0 0 -5.1365e-09 
186 1 0.000408911 5.43917e-05 0.000862701 5e-05 -0.0637931 0.000700185 -0.105263 0 0 -5.1365e-09 
243 1 -0.000420405 0.000121663 0.000898375 5e-05 -0.0121711 -0.0175007 -0.101608 0 0 -5.1365e-09 
353 1 -0.000154053 0.00020352 0.00079859 5e-05 0.000644034 -0.000277811 -0.157259 0 0 -5.1365e-09 
235 1 -0.000201569 0.000101216 0.000908043 5e-05 0.0556129 -0.0281391 -0.145896 0 0 -5.1365e-09 
308 1 -0.000316192 0.000229075 0.000849606 5e-05 -0.0144846 -0.0426991 -0.145612 0 0 -5.1365e-09 
157 1 -0.000170556 0.000196286 0.000906563 5e-05 0.0393686 -0.0591027 -0.15914 0 0 -5.1365e-09 
425 1 -0.000142393 0.000367493 0.000908413 5e-05 0.0307473 -0.0265059 -0.1384 0 0 -5.1365e-09 
422 1 0.000178206 0.000409206 0.000940441 5e-05 -0.0471263 -0.0204563 -0.115735 0 0 -5.1365e-09 
89 1 -0.000101026 -0.000418111 0.000982657 5e-05 0.0584456 0.0254538 -0.131825 0 0 -5.1365e-09 
528 1 0.00020446 -0.000457921 0.00112493 5e-05 -0.0363162 0.00565259 -0.100865 0 0 -5.1365e-09 
558 1 0.000271043 -0.000374712 0.00109228 5e-05 -0.0456402 0.0241103 -0.077376 0 0 -5.1365e-09 
379 1 -0.000270517 -0.000322611 0.00109594 5e-05 0.0352849 0.0118298 -0.100122 0 0 -5.1365e-09 
23 1 0.000108719 -0.000367922 0.00105742 5e-05 -0.0615316 0.0088863 -0.106958 0 0 -5.1365e-09 
251 1 0.000118246 -0.000255564 0.0010769 5e-05 -0.0585119 -0.000349832 -0.125351 0 0 -5.1365e-09 
299 1 0.000269745 -0.000241019 0.00105897 5e-05 -0.011593 0.0273979 -0.131799 0 0 -5.1365e-09 
222 1 0.000374326 -0.00025598 0.0010492 5e-05 -0.0133679 0.0199325 -0.098547 0 0 -5.1365e-09 
508 1 0.000306757 -0.000130081 0.0010165 5e-05 -0.032729 0.0397472 -0.123763 0 0 -5.1365e-09 
350 1 0.000447945 -6.27725e-05 0.000999989 5e-05 -0.0357022 0.0299609 -0.0792588 0 0 -5.1365e-09 
37 1 0.000403421 -0.000159962 0.00111517 5e-05 -0.0536415 0.0468819 -0.100949 0 0 -5.1365e-09 
367 1 -0.000448884 3.13484e-05 0.00104512 5e-05 0.0453986 -0.0428597 -0.0711695 0 0 -5.1365e-09 
285 1 -0.000306928 1.77352e-05 0.00102019 5e-05 0.0692519 -0.0312145 -0.131466 0 0 -5.1365e-09 
132 1 0.000331307 -3.40259e-05 0.00105853 5e-05 0.0041427 0.0134566 -0.131254 0 0 -5.1365e-09 
509 1 -0.000424925 0.000144097 0.00100218 5e-05 0.0370161 -0.0332426 -0.124244 0 0 -5.1365e-09 
326 1 -0.000318892 0.000125782 0.000927087 5e-05 0.0568163 -0.0179503 -0.144321 0 0 -5.1365e-09 
485 1 -0.000273515 0.000127988 0.00106537 5e-05 0.0284508 -0.026802 -0.104755 0 0 -5.1365e-09 
482 1 -0.00043587 0.00022428 0.00106588 5e-05 0.00616265 -0.0337097 -0.119664 0 0 -5.1365e-09 
471 1 -0.000339824 0.000225654 0.000993444 5e-05 0.0254408 -0.0403433 -0.140245 0 0 -5.1365e-09 
128 1 -0.000291225 0.000327422 0.000986134 5e-05 0.018486 -0.0322747 -0.108091 0 0 -5.1365e-09 
183 1 -0.000200578 0.000241207 0.00103691 5e-05 0.0770774 -0.0299861 -0.145563 0 0 -5.1365e-09 
475 1 -2.1276e-05 0.000215687 0.00104843 5e-05 0.0861921 -0.0290521 -0.100525 0 0 -5.1365e-09 
115 1 -0.000124377 0.000283102 0.00111528 5e-05 0.0414637 -0.0104724 -0.111223 0 0 -5.1365e-09 
57 1 0.000178624 0.000275894 0.00100853 5e-05 -0.0395586 -0.0222407 -0.128317 0 0 -5.1365e-09 
493 1 0.000341851 0.000254488 0.00104647 5e-05 -0.0215535 -0.0276797 -0.108962 0 0 -5.1365e-09 
384 1 -8.57014e-05 0.000494704 0.00115134 5e-05 0.0366834 -0.0280761 -0.0530854 0 0 -5.1365e-09 
473 1 -0.000258401 -0.000452503 0.00126355 5e-05 0.0117514 -0.00577641 -0.0869601 0 0 -5.1365e-09 
489 1 -8.02864e-05 -0.000452772 0.00121512 5e-05 0.0474929 -0.0306657 -0.117856 0 0 -5.1365e-09 
196 1 1.79632e-05 -0.000503492 0.00121099 5e-05 0.0458865 0.00744361 -0.115788 0 0 -5.1365e-09 
401 1 7.94897e-05 -0.000407858 0.00119134 5e-05 -0.04507 0.0396533 -0.0621058 0 0 -5.1365e-09 
402 1 0.000295643 -0.000396657 0.00121503 5e-05 -0.0159068 0.0109188 -0.10656 0 0 -5.1365e-09 
291 1 0.000226158 -0.000423855 0.00129065 5e-05 -0.0450509 0.0370374 -0.0696719 0 0 -5.1365e-09 
305 1 3.09545e-05 -0.000304573 0.00129804 5e-05 0.0678875 0.0125076 -0.0806387 0 0 -5.1365e-09 
381 1 0.000324688 -0.000291666 0.00117346 5e-05 -0.0336553 0.00319941 -0.110546 0 0 -5.1365e-09 
541 1 0.000224694 -0.000313555 0.00115724 5e-05 -0.0184065 -0.0214346 -0.129697 0 0 -5.1365e-09 
13 1 0.000433757 -0.000266711 0.00115157 5e-05 -0.0085043 0.035671 -0.0947844 0 0 -5.1365e-09 
331 1 0.000383926 -0.000338754 0.00126811 5e-05 0.00458691 0.0170472 -0.115668 0 0 -5.1365e-09 
434 1 0.000389002 -0.000203586 0.00122268 5e-05 -0.00732197 0.0422555 -0.149698 -4.92074e-07 -1.46172e-07 -4.78204e-07 
168 1 -0.000500639 -0.000163651 0.00127738 5e-05 0.0461249 -0.0491039 -0.105007 0 0 -5.1365e-09 
86 1 0.000269308 -0.00010331 0.00119967 5e-05 -0.0701383 0.0489222 -0.0977986 0 0 -5.1365e-09 
25 1 0.00025816 -0.000202693 0.001257 5e-05 -0.0122876 -0.0288163 -0.114735 0 0 -5.1365e-09 
136 1 0.000480909 -0.000175686 0.0012504 5e-05 -0.0305349 0.0241118 -0.111476 4.92074e-07 1.46172e-07 4.67931e-07 
239 1 -0.000445806 4.24643e-07 0.00121523 5e-05 0.0197848 -0.0261957 -0.160181 0 0 -5.1365e-09 
153 1 -0.000231434 -1.50588e-05 0.00118158 5e-05 -0.00443353 -0.0346912 -0.108493 0 0 -5.1365e-09 
459 1 0.000383338 -3.50626e-05 0.00124774 5e-05 0.00625345 0.0279367 -0.133248 0 0 -5.1365e-09 
50 1 0.000502677 1.75854e-07 0.00119772 5e-05 -0.0266354 0.0224311 -0.101339 0 0 -5.1365e-09 
441 1 0.000465418 7.72964e-05 0.00125866 5e-05 -0.0196202 0.0586836 -0.100908 0 0 -5.1365e-09 
463 1 -0.000461857 0.000126601 0.00115446 5e-05 0.0651045 -0.0458416 -0.0809526 0 0 -5.1365e-09 
321 1 -0.000392626 5.80244e-05 0.00113091 5e-05 0.0219246 -0.0202213 -0.153645 0 0 -5.1365e-09 
49 1 -0.000299824 0.000134799 0.00126818 5e-05 0.0262408 -0.00288243 -0.125934 0 0 -5.1365e-09 
213 1 -0.000197507 0.00014998 0.00127585 5e-05 0.0190519 -0.0154975 -0.0958544 0 0 -5.1365e-09 
123 1 -0.000474146 0.000227655 0.00119919 5e-05 -0.00570947 -0.0438634 -0.113102 0 0 -5.1365e-09 
393 1 -0.000426448 0.00030878 0.0012499 5e-05 0.00873935 -0.0366832 -0.0911336 0 0 -5.1365e-09 
10 1 -0.000371963 0.000314211 0.00113762 5e-05 0.0301266 -0.0427776 -0.075497 0 0 -5.1365e-09 
311 1 -0.000272306 0.000247376 0.00112859 5e-05 0.0385044 -0.0223377 -0.152297 0 0 -5.1365e-09 
108 1 -0.000214889 0.000307567 0.00126532 5e-05 0.0230341 -0.0450484 -0.0941685 0 0 -5.1365e-09 
90 1 0.000225546 0.00033101 0.00110827 5e-05 0.00805711 -0.0362823 -0.128392 0 0 -5.1365e-09 
537 1 -0.000340932 0.000386264 0.00123635 5e-05 0.0082191 -0.0206906 -0.0902276 0 0 -5.1365e-09 
60 1 0.00016278 0.000442309 0.00120232 5e-05 -0.025586 -0.0363983 -0.0984459 0 0 -5.1365e-09 
358 1 0.000110079 0.000395271 0.00128203 5e-05 -0.0472596 -0.042979 -0.0802965 0 0 -5.1365e-09 
9 1 -0.000134643 -0.00056434 0.00147778 5e-05 0.091408 -0.0667133 -0.0573621 0 0 -5.1365e-09 
107 1 0.000187905 -0.000531785 0.00142733 5e-05 -0.00416055 0.0233196 -0.039151 0 0 -5.1365e-09 
113 1 -0.000413246 -0.00040748 0.00148975 5e-05 0.0302533 -0.00214568 -0.0330511 0 0 -5.1365e-09 
42 1 -9.58556e-05 -0.000518181 0.00135437 5e-05 0.0221634 -0.0235478 -0.0744749 0 0 -5.1365e-09 
549 1 -7.58822e-05 -0.000363091 0.00137055 5e-05 0.0270582 0.0804245 -0.0963734 0 0 -5.1365e-09 
538 1 7.86894e-05 -0.000378811 0.00139017 5e-05 0.0770698 0.0508823 -0.0550486 0 0 -5.1365e-09 
317 1 -3.34451e-05 -0.000547188 0.00146246 5e-05 0.0153571 -0.0119501 -0.088518 0 0 -5.1365e-09 
296 1 0.000338684 -0.000435592 0.00139033 5e-05 0.00150409 0.00242923 -0.043648 0 0 -5.1365e-09 
159 1 0.000413319 -0.00036996 0.00140859 5e-05 -0.0168168 0.0465543 -0.042159 0 0 -5.1365e-09 
227 1 -0.000468003 -0.000302509 0.00144747 5e-05 0.0267836 0.00715341 -0.0435674 0 0 -5.1365e-09 
141 1 0.000330145 -0.000331768 0.00135253 5e-05 -0.0293923 0.051288 -0.0751784 0 0 -5.1365e-09 
78 1 0.000286673 -0.000240886 0.00135475 5e-05 -0.00790676 0.0161048 -0.129414 0 0 -5.1365e-09 
35 1 0.000486394 -0.000274204 0.00140176 5e-05 -0.031955 0.0244975 -0.0751816 0 0 -5.1365e-09 
449 1 -0.000367917 -0.000173346 0.00132439 5e-05 0.0559059 0.0356363 -0.0670793 0 0 -5.1365e-09 
342 1 -0.000442577 -0.000176558 0.00142006 5e-05 0.0100168 0.023898 -0.0980127 0 0 -5.1365e-09 
281 1 -0.000333303 -0.000125809 0.00140622 5e-05 0.0569749 0.000191755 -0.0953203 0 0 -5.1365e-09 
17 1 0.000346786 -0.000127836 0.0013238 5e-05 -0.0336379 0.0138687 -0.0929416 0 0 -5.1365e-09 
170 1 0.000277326 -0.000103494 0.00144608 5e-05 0.0415501 0.0339057 -0.0881832 0 0 -5.1365e-09 
121 1 0.000431278 -0.000182731 0.00133797 5e-05 -0.0161454 0.00245483 -0.0808406 0 0 -5.1365e-09 
457 1 0.000444689 -7.30882e-05 0.00132813 5e-05 0.00791377 -0.0281033 -0.111122 0 0 -5.1365e-09 
447 1 0.000537193 -0.000163455 0.00139593 5e-05 -0.0283972 0.0399726 -0.0809272 0 0 -5.1365e-09 
387 1 -0.000533982 1.95719e-05 0.00129692 5e-05 0.0210013 -0.00641395 -0.0756087 0 0 -5.1365e-09 
429 1 -0.000571253 -3.56938e-05 0.00144574 5e-05 0.0482428 0.0128813 -0.0320604 0 0 -5.1365e-09 
438 1 -0.000583641 5.36881e-05 0.00150546 5e-05 0.0266933 -0.0252298 -0.0379876 0 0 -5.1365e-09 
363 1 -0.000437143 -3.56065e-05 0.0013309 5e-05 0.00673674 -0.076826 -0.119052 0 0 -5.1365e-09 
160 1 -0.000423499 -7.12891e-05 0.00143342 5e-05 0.022913 -0.0203954 -0.0981105 0 0 -5.1365e-09 
92 1 -0.000283269 -3.28434e-05 0.00137779 5e-05 0.00584204 0.0120943 -0.0951951 0 0 -5.1365e-09 
30 1 -0.000370962 2.44272e-05 0.00141111 5e-05 -0.0170077 -0.00576247 -0.126901 0 0 -5.1365e-09 
142 1 -0.000270606 4.84671e-05 0.00143531 5e-05 -0.0239233 -0.027943 -0.0840998 0 0 -5.1365e-09 
454 1 0.000231135 -1.51608e-05 0.0014294 5e-05 0.0015825 0.00138108 -0.10514 0 0 -5.1365e-09 
91 1 0.000268957 -2.93379e-05 0.00129803 5e-05 -0.0130264 0.0387272 -0.128637 0 0 -5.1365e-09 
256 1 0.000303013 7.05581e-05 0.0014104 5e-05 0.0153443 0.0202511 -0.0765337 0 0 -5.1365e-09 
261 1 0.000364172 -4.70721e-05 0.00139454 5e-05 0.0187995 0.00785571 -0.115734 0 0 -5.1365e-09 
287 1 0.000443185 3.01439e-05 0.00138427 5e-05 0.0109922 0.0322646 -0.0836991 0 0 -5.1365e-09 
266 1 0.000556946 -4.58799e-05 0.00139263 5e-05 0.0337346 0.0202053 -0.102431 0 0 -5.1365e-09 
26 1 -0.000548204 9.86042e-05 0.00137407 5e-05 0.000943312 -0.0584086 -0.0664847 0 0 -5.1365e-09 
75 1 -0.000468684 5.56226e-05 0.00141716 5e-05 0.0173503 -0.045542 -0.10484 0 0 -5.1365e-09 
421 1 -0.000463304 0.000170566 0.00139624 5e-05 0.0156004 -0.0291689 -0.104407 -7.36364e-07 -3.71963e-07 4.69596e-07 
383 1 -0.000411813 7.1389e-05 0.00132945 5e-05 0.00471647 -0.0116896 -0.118786 0 0 -5.1365e-09 
564 1 -0.000247967 5.70971e-05 0.00133748 5e-05 0.0342368 -0.0270085 -0.0927656 0 0 -5.1365e-09 
126 1 -0.000377751 0.000164465 0.00134492 5e-05 0.0134552 -0.0404525 -0.125946 7.36364e-07 3.71963e-07 -4.79869e-07 
497 1 0.000446721 0.000156822 0.00135589 5e-05 0.00677934 0.0223466 -0.0926568 0 0 -5.1365e-09 
282 1 0.000549696 0.000155885 0.00145571 5e-05 -0.0460656 -0.0496666 -0.0300902 0 0 -5.1365e-09 
84 1 0.000539754 9.21223e-05 0.00136311 5e-05 -0.0178424 0.00716763 -0.0856336 0 0 -5.1365e-09 
61 1 -0.000462152 0.000190449 0.00129196 5e-05 -0.023663 -0.047736 -0.119074 0 0 -5.1365e-09 
320 1 -0.000410325 0.000350367 0.0013398 5e-05 0.0180043 -0.0161222 -0.101204 0 0 -5.1365e-09 
226 1 -0.000502425 0.000257762 0.00142955 5e-05 0.0105616 -0.0305489 -0.0836541 0 0 -5.1365e-09 
47 1 -0.000389192 0.000253833 0.00139605 5e-05 0.0328451 -0.0622821 -0.103222 0 0 -5.1365e-09 
388 1 -0.000335489 0.000251798 0.00127688 5e-05 0.0173762 -0.0474879 -0.113156 0 0 -5.1365e-09 
507 1 -0.000287437 0.000214214 0.00143923 5e-05 0.0365426 -0.0600364 -0.0748564 0 0 -5.1365e-09 
87 1 -0.000299472 0.000308881 0.00138598 5e-05 0.0310235 -0.0438428 -0.106496 0 0 -5.1365e-09 
181 1 4.98952e-05 0.000399011 0.00147943 5e-05 -0.03842 0.0295396 -0.0463736 0 0 -5.1365e-09 
74 1 0.000461262 0.000269173 0.0013287 5e-05 -0.020234 -0.0194141 -0.0875603 0 0 -5.1365e-09 
389 1 -0.000349027 0.000429517 0.00142877 5e-05 0.0122388 -0.0397967 -0.0907437 0 0 -5.1365e-09 
560 1 -0.000147224 0.00045197 0.00130378 5e-05 0.0607996 -0.0452772 -0.102466 0 0 -5.1365e-09 
174 1 3.51779e-08 0.000478825 0.00144222 5e-05 -0.0768389 -0.0110931 -0.0566684 0 0 -5.1365e-09 
476 1 0.000171607 0.000508934 0.00133759 5e-05 -0.0123491 -0.0150846 -0.0939502 0 0 -5.1365e-09 
140 1 0.000127794 0.000476068 0.00144992 5e-05 -0.0208127 -0.0248607 -0.0622798 0 0 -5.1365e-09 
228 1 0.000198667 0.000338411 0.00135418 5e-05 -0.0439509 -0.0505929 -0.0489302 0 0 -5.1365e-09 
218 1 0.000359186 0.00042619 0.00144546 5e-05 -0.0192395 -0.00584947 -0.0399229 0 0 -5.1365e-09 
548 1 -1.865e-05 0.000585757 0.00148948 5e-05 0.00463659 -0.0171816 -0.0510332 0 0 -5.1365e-09 
502 1 8.42788e-05 0.0005634 0.00142795 5e-05 -1.53183e-05 -0.00110855 -0.0551926 0 0 -5.1365e-09 
207 1 -0.000121695 -0.00058861 0.00159279 5e-05 0.0125699 0.0153924 -0.00913181 0 0 -5.1365e-09 
553 1 -2.70775e-06 -0.000599525 0.00154244 5e-05 -0.0288405 0.01301 -0.0298102 0 0 -5.1365e-09 
569 1 -1.84886e-06 -0.000617179 0.00169523 5e-05 -0.0081563 -0.0406764 -0.0165169 0 0 -5.1365e-09 
298 1 0.000134693 -0.000576932 0.00152658 5e-05 0.0250584 0.0144223 -0.015661 0 0 -5.1365e-09 
373 1 8.56267e-05 -0.00060228 0.00163569 5e-05 0.00494702 -0.0084182 0.000476477 0 0 -5.1365e-09 
118 1 0.000275957 -0.000532393 0.00153815 5e-05 0.0041495 -0.0121551 -0.0180984 0 0 -5.1365e-09 
513 1 0.000285744 -0.00056139 0.00167435 5e-05 0.00870807 -0.00304351 -0.0351765 0 0 -5.1365e-09 
68 1 -0.000388979 -0.000410605 0.0015915 5e-05 0.00700907 -0.0251853 -0.0292851 0 0 -5.1365e-09 
516 1 -0.00041503 -0.000478055 0.0016607 5e-05 0.0248703 0.0127545 -0.0123433 0 0 -5.1365e-09 
67 1 -0.000343459 -0.000499024 0.00157413 5e-05 0.0117252 -0.0194862 -0.00067156 0 0 -5.1365e-09 
283 1 -0.000243861 -0.000499365 0.00158797 5e-05 0.0243295 -0.0407493 -0.0460972 0 0 -5.1365e-09 
335 1 -0.000290866 -0.000416991 0.00155014 5e-05 0.0276343 -0.0166719 -0.00128161 0 0 -5.1365e-09 
523 1 -0.000141829 -0.000419124 0.00155054 5e-05 0.0191239 0.0260912 0.0102758 0 0 -5.1365e-09 
375 1 -7.46991e-05 -0.000489271 0.00160041 5e-05 0.0303433 -0.0161255 0.0125657 0 0 -5.1365e-09 
284 1 -0.000165656 -0.000462342 0.00164912 5e-05 0.0456183 -0.0511097 -0.0349735 0 0 -5.1365e-09 
536 1 6.07172e-05 -0.000504838 0.00153836 5e-05 -0.000629254 0.0197803 -0.042793 0 0 -5.1365e-09 
382 1 7.67848e-05 -0.000394698 0.00155003 5e-05 0.0323271 -0.0149434 0.0253978 0 0 -5.1365e-09 
3 1 -4.40684e-05 -0.000425075 0.00151516 5e-05 -0.00456906 -0.0135028 -0.0773921 0 0 -5.1365e-09 
203 1 6.1601e-05 -0.000416354 0.0016485 5e-05 0.0261445 -0.019324 -0.00692871 4.22701e-07 4.54192e-07 3.02328e-07 
14 1 2.16864e-05 -0.000507167 0.00163617 5e-05 0.0546922 -0.0435143 -0.0279526 -4.22701e-07 -4.54192e-07 -3.12601e-07 
188 1 0.000176308 -0.000486749 0.00155157 5e-05 0.0362201 0.0175713 -0.00570968 0 0 -5.1365e-09 
545 1 0.000190048 -0.000572511 0.00163519 5e-05 0.0257589 -0.0792825 -0.0220382 0 0 -5.1365e-09 
236 1 0.00017426 -0.000391135 0.00158267 5e-05 0.0179539 0.00409303 0.0105654 0 0 -5.1365e-09 
156 1 0.000268691 -0.00043203 0.00155013 5e-05 0.0208732 -0.000310166 0.0133257 0 0 -5.1365e-09 
316 1 0.000366455 -0.000415256 0.00149673 5e-05 0.0214948 -0.0183763 -0.0603113 0 0 -5.1365e-09 
255 1 0.000386431 -0.000473808 0.0016068 5e-05 0.0136888 -0.00364986 -0.0271242 0 0 -5.1365e-09 
102 1 0.000287138 -0.000462337 0.00165261 5e-05 0.0214868 -0.0071027 -0.0203737 0 0 -5.1365e-09 
166 1 0.000456737 -0.00038055 0.00155826 5e-05 0.0119726 0.0345784 -0.0133471 0 0 -5.1365e-09 
514 1 -0.000503956 -0.00028032 0.00156007 5e-05 0.00336552 -0.00544106 -0.0287871 0 0 -5.1365e-09 
29 1 -0.000391185 -0.000317033 0.00154174 5e-05 0.00260952 0.00362008 -0.0204263 0 0 -5.1365e-09 
295 1 -0.000440822 -0.000237272 0.00163091 5e-05 -0.0527964 -0.0101253 -0.0515708 0 0 -5.1365e-09 
237 1 -0.000480615 -0.000374658 0.00163462 5e-05 -0.000509474 0.0283802 -0.0308262 0 0 -5.1365e-09 
99 1 -0.000262349 -0.000320905 0.0015533 5e-05 0.010198 -0.00183952 0.0044739 0 0 -5.1365e-09 
167 1 -0.000220323 -0.000366933 0.00163272 5e-05 0.0158687 -0.0210239 -0.0134461 0 0 -5.1365e-09 
400 1 -0.000328948 -0.000243946 0.00157694 5e-05 0.0191456 0.01089 -0.0147012 0 0 -5.1365e-09 
368 1 -0.000320818 -0.000350568 0.00163397 5e-05 0.00529368 -4.60467e-07 -0.0495094 0 0 -5.1365e-09 
544 1 -0.000250157 -0.000260684 0.00167725 5e-05 0.0187333 -0.0257032 -0.00824232 0 0 -5.1365e-09 
534 1 -0.000163479 -0.000281913 0.00161898 5e-05 0.0107615 -0.00816892 0.00589118 0 0 -5.1365e-09 
4 1 -0.000105744 -0.000373004 0.00163333 5e-05 0.011366 -0.0277137 0.0104075 0 0 -5.1365e-09 
427 1 -8.60067e-05 -0.000310091 0.00155445 5e-05 0.0210009 -0.0173068 -0.0135675 0 0 -5.1365e-09 
131 1 5.06881e-05 -0.000297442 0.00155004 5e-05 0.0249108 0.0275521 0.00192398 2.27583e-07 -1.24644e-06 -4.28983e-07 
554 1 -1.20205e-05 -0.000341926 0.00161704 5e-05 0.0306232 -0.00818627 -0.0100209 0 0 -5.1365e-09 
22 1 0.000113359 -0.000314275 0.00162871 5e-05 0.0233725 -0.00589519 -0.00791887 0 0 -5.1365e-09 
70 1 0.000189808 -0.000292111 0.00155107 5e-05 0.00988451 0.0149332 0.00354726 0 0 -5.1365e-09 
361 1 0.000194644 -0.000389073 0.00168663 5e-05 0.00334238 -0.0141966 -0.00499094 0 0 -5.1365e-09 
114 1 0.00026034 -0.000354037 0.00161798 5e-05 0.0366135 0.00969149 -0.0180233 0 0 -5.1365e-09 
496 1 0.000371 -0.000298666 0.00151126 5e-05 -8.4778e-05 0.0220415 -0.0860962 0 0 -5.1365e-09 
448 1 0.00036575 -0.000215965 0.0014273 5e-05 -0.00829829 0.0339154 -0.125908 0 0 -5.1365e-09 
386 1 0.00031608 -0.000271185 0.00163214 5e-05 0.0375722 0.0263802 -0.0402837 1.64866e-07 -4.53371e-07 1.0229e-07 
258 1 0.000533697 -0.000257963 0.00150771 5e-05 -0.0100841 0.0188322 -0.0703528 0 0 -5.1365e-09 
215 1 0.000454492 -0.000258168 0.00158057 5e-05 -0.00906104 -0.00793766 -0.0526207 0 0 -5.1365e-09 
93 1 0.000544846 -0.000303394 0.00165101 5e-05 0.0181737 0.0658732 -0.0153459 0 0 -5.1365e-09 
337 1 -0.000555182 -0.000151445 0.00149157 5e-05 0.00128015 0.0132783 -0.0614213 0 0 -5.1365e-09 
51 1 -0.000444358 -0.000194984 0.00152604 5e-05 0.0519598 0.00694083 -0.0885597 0 0 -5.1365e-09 
165 1 -0.000473025 -9.70101e-05 0.0015334 5e-05 0.01036 -0.0113368 -0.0682918 0 0 -5.1365e-09 
43 1 -0.000231183 -0.000225562 0.00156006 5e-05 0.0131609 -0.00365807 0.0131007 0 0 -5.1365e-09 
343 1 -0.000266829 -0.000155887 0.00163092 5e-05 -0.0344465 -0.0267456 -0.0225493 0 0 -5.1365e-09 
191 1 -0.000375746 -0.00015632 0.00159308 5e-05 -0.000577251 0.00898301 -0.0547246 0 0 -5.1365e-09 
397 1 -0.000346419 -7.1497e-05 0.00165076 5e-05 -0.019535 0.0318211 -0.0351118 0 0 -5.1365e-09 
80 1 -0.000195027 -0.000131742 0.00155113 5e-05 0.00895961 0.00177706 0.00799702 0 0 -5.1365e-09 
81 1 -0.000126704 -0.000216701 0.00155033 5e-05 0.00916674 -0.00974192 0.00600373 0 0 -5.1365e-09 
309 1 -0.000123291 -0.000144015 0.00162047 5e-05 -0.00147042 -0.0140821 -0.00380633 0 0 -5.1365e-09 
555 1 -5.0054e-05 -0.000144514 0.00155066 5e-05 0.00972049 -0.0135329 0.00137827 0 0 -5.1365e-09 
405 1 4.68517e-05 -0.000115084 0.00155112 5e-05 0.00664949 0.00528338 0.00289179 0 0 -5.1365e-09 
376 1 5.39516e-05 -0.000207432 0.00159334 5e-05 0.00617837 0.00484639 -0.0194284 4.24796e-07 3.12189e-07 -2.76365e-07 
104 1 -4.28583e-05 -0.000239487 0.00161137 5e-05 -0.0255048 -0.0235871 -0.0249192 0 0 -5.1365e-09 
20 1 4.58932e-05 -0.00013969 0.00166636 5e-05 0.012808 0.000865719 -0.0111787 -6.5238e-07 9.34251e-07 6.89939e-07 
414 1 0.00015452 -0.000186384 0.00155107 5e-05 0.0139222 0.0173555 0.00550579 0 0 -5.1365e-09 
293 1 0.000132036 -0.000198536 0.0016607 5e-05 0.00522953 -0.0202722 -0.0263029 0 0 -5.1365e-09 
98 1 0.000144174 -7.97792e-05 0.00155068 5e-05 0.00360581 0.0339784 0.0137163 0 0 -5.1365e-09 
77 1 0.000226327 -9.61606e-05 0.00161656 5e-05 0.0474833 -0.00348703 -0.0309969 0 0 -5.1365e-09 
155 1 0.000330033 -0.000206505 0.00155239 5e-05 0.0825315 0.0613417 -0.0410301 0 0 -5.1365e-09 
330 1 0.000370562 -0.00010844 0.00150748 5e-05 0.0515823 -0.0109666 -0.113824 0 0 -5.1365e-09 
467 1 0.000335051 -9.89536e-05 0.00163033 5e-05 -0.0123149 0.0453022 -0.0448606 0 0 -5.1365e-09 
274 1 0.000454265 -0.000171449 0.00145246 5e-05 -0.0288637 0.0157482 -0.103538 0 0 -5.1365e-09 
340 1 0.000476137 -7.14226e-05 0.00145057 5e-05 -0.0226954 0.0229044 -0.0852916 0 0 -5.1365e-09 
325 1 0.000423991 -0.0001621 0.0015772 5e-05 0.0416939 -0.0130792 -0.0814069 0 0 -5.1365e-09 
100 1 0.000493126 -7.74494e-05 0.00160239 5e-05 0.0253552 0.0496333 -0.103175 0 0 -5.1365e-09 
27 1 0.000550286 -0.00016816 0.00155196 5e-05 0.0183387 0.0320902 -0.0540038 0 0 -5.1365e-09 
355 1 -0.000595542 -3.62177e-05 0.00155199 5e-05 0.0129577 -0.0314697 -0.0461342 0 0 -5.1365e-09 
45 1 -0.000492897 1.89759e-06 0.00150512 5e-05 0.0242841 0.011355 -0.0748703 0 0 -5.1365e-09 
204 1 -0.000300739 -1.52161e-05 0.00158144 5e-05 -0.0372874 -0.0338891 -0.0818171 0 0 -5.1365e-09 
312 1 -0.000404545 -2.26138e-05 0.00157015 5e-05 -0.0326759 -0.0055428 -0.085101 0 0 -5.1365e-09 
40 1 -0.000100221 -4.67141e-05 0.00155085 5e-05 0.0248138 -0.023277 0.000641421 0 0 -5.1365e-09 
455 1 -0.00021671 -1.18469e-05 0.00152188 5e-05 -0.0184065 -0.0154817 -0.0524587 0 0 -5.1365e-09 
484 1 -0.000141863 -4.69907e-05 0.00164236 5e-05 -0.00818558 0.0104261 -0.00502965 0 0 -5.1365e-09 
124 1 -2.36481e-05 -6.32804e-05 0.00161364 5e-05 -0.000409871 -0.0153874 0.00212705 0 0 -5.1365e-09 
359 1 -6.16125e-05 3.14032e-05 0.0016078 5e-05 -0.0321624 0.00457258 -0.0110242 0 0 -5.1365e-09 
446 1 1.82266e-05 8.31468e-06 0.00155046 5e-05 0.0149734 -0.00166263 -0.00849138 0 0 -5.1365e-09 
559 1 8.95547e-05 -5.27162e-05 0.00163163 5e-05 -0.00496476 0.0184444 0.00461637 0 0 -5.1365e-09 
158 1 0.000120056 2.73746e-05 0.00155073 5e-05 0.00763707 -0.00673636 0.00315566 0 0 -5.1365e-09 
64 1 0.000180652 -1.29427e-06 0.00162546 5e-05 0.029763 -0.0218015 -0.0262262 0 0 -5.1365e-09 
82 1 0.000234382 8.25337e-05 0.00154079 5e-05 -0.0254259 0.00325957 -0.0466745 0 0 -5.1365e-09 
504 1 0.000273265 -2.18913e-05 0.00153901 5e-05 -0.00475341 0.00820692 -0.0867361 0 0 -5.1365e-09 
34 1 0.000395185 -3.92051e-05 0.00157566 5e-05 0.027881 -0.0196947 -0.101246 0 0 -5.1365e-09 
479 1 0.000505215 7.0292e-06 0.00154863 5e-05 -0.0534826 0.041126 -0.0779697 0 0 -5.1365e-09 
208 1 0.000587938 -4.80064e-05 0.00150852 5e-05 -0.0237725 -0.00724135 -0.0212402 0 0 -5.1365e-09 
11 1 0.000576046 5.02791e-05 0.00148516 5e-05 0.0259488 -0.0134785 -0.0575063 0 0 -5.1365e-09 
351 1 -0.000547607 0.000153228 0.00149555 5e-05 0.0579101 0.00476678 -0.0497727 0 0 -5.1365e-09 
111 1 -0.000589722 8.29239e-05 0.00160102 5e-05 -0.0343199 0.00590836 -0.0612374 0 0 -5.1365e-09 
6 1 -0.000413138 6.51081e-05 0.00150457 5e-05 -0.00315886 -0.00796014 -0.0860895 0 0 -5.1365e-09 
339 1 -0.000562493 0.000202711 0.00159893 5e-05 -0.0519021 -0.0163169 -0.0700827 0 0 -5.1365e-09 
324 1 -0.00038213 0.00014869 0.00145129 5e-05 0.0321621 0.00846612 -0.0940816 0 0 -5.1365e-09 
347 1 -0.000291243 0.000146171 0.00151649 5e-05 -0.00878906 -0.0248728 -0.0665872 0 0 -5.1365e-09 
214 1 -0.000343147 8.29233e-05 0.00158256 5e-05 -0.0165418 -0.0206619 -0.0518213 0 0 -5.1365e-09 
109 1 -0.000422622 0.000160149 0.00160189 5e-05 -0.0492877 -0.0174667 -0.0683012 0 0 -5.1365e-09 
179 1 -0.000308764 0.000173913 0.0016186 5e-05 -0.052319 -0.0425546 -0.0536876 0 0 -5.1365e-09 
472 1 -0.00014901 5.69799e-05 0.00155368 5e-05 -0.00871121 -0.0291174 -0.00317133 0 0 -5.1365e-09 
364 1 -0.000197348 0.000149847 0.00155908 5e-05 -0.0109401 0.0299688 -0.00340273 0 0 -5.1365e-09 
481 1 -0.000162272 0.000228269 0.00161635 5e-05 -0.0091487 -0.0075946 -0.0166031 0 0 -5.1365e-09 
431 1 -0.000242269 7.36731e-05 0.00160957 5e-05 -0.0241219 -0.0315407 -0.0432285 0 0 -5.1365e-09 
428 1 -9.91646e-05 0.000136621 0.00160613 5e-05 -0.0124007 -0.00161439 -0.0320961 0 0 -5.1365e-09 
54 1 1.5636e-05 9.27037e-05 0.00164142 5e-05 -0.0114557 0.00538447 -0.00622074 0 0 -5.1365e-09 
169 1 -1.50042e-05 0.000125148 0.0015506 5e-05 -0.0289666 0.0120556 -0.0190836 0 0 -5.1365e-09 
192 1 -8.05984e-05 0.000223672 0.0015562 5e-05 -0.0402797 0.0210132 0.013058 0 0 -5.1365e-09 
259 1 4.20552e-07 0.000200116 0.00161516 5e-05 -0.0129088 0.00975235 -0.00523666 0 0 -5.1365e-09 
406 1 7.44042e-05 0.000180365 0.00155025 5e-05 -0.0182712 0.00760871 -0.00403569 0 0 -5.1365e-09 
161 1 0.000173306 0.000162943 0.00155016 5e-05 -0.00681206 0.0131892 0.00724758 0 0 -5.1365e-09 
524 1 0.000110758 0.000108212 0.00160931 5e-05 -0.00934536 0.000369855 0.0029567 0 0 -5.1365e-09 
570 1 0.000130367 0.000211533 0.0016277 5e-05 0.00347336 0.0115511 0.00147189 0 0 -5.1365e-09 
272 1 0.000202005 9.62317e-05 0.00164996 5e-05 0.0207205 0.0318466 -0.0498845 -5.02259e-07 -1.99796e-06 8.20573e-07 
66 1 0.000234543 0.000188985 0.00163221 5e-05 0.00971451 0.0118333 0.000974655 5.02259e-07 1.99796e-06 -8.30846e-07 
225 1 0.000326818 0.000149157 0.00149615 5e-05 -0.00365562 -0.00462731 -0.0610917 0 0 -5.1365e-09 
371 1 0.000376691 0.000195433 0.00161309 5e-05 0.0314681 -0.0213821 -0.037154 -5.34157e-07 -5.84245e-07 -1.38235e-08 
547 1 0.0003755 9.34169e-05 0.001575 5e-05 0.0213762 -0.00187069 -0.0626692 0 0 -5.1365e-09 
346 1 0.000446767 8.29788e-05 0.00147693 5e-05 -0.00483146 0.00192672 -0.0544254 0 0 -5.1365e-09 
135 1 0.000494719 0.000142391 0.00156086 5e-05 -0.0411834 0.00821285 -0.100283 0 0 -5.1365e-09 
175 1 0.000598814 0.000103182 0.00159269 5e-05 -0.0261248 0.0176298 -0.0728165 0 0 -5.1365e-09 
409 1 -0.000547717 0.000307978 0.00167038 5e-05 -0.0421964 0.00269321 -0.0755016 0 0 -5.1365e-09 
224 1 -0.000452183 0.000335989 0.00147379 5e-05 0.0226634 -0.0372165 -0.0892342 0 0 -5.1365e-09 
297 1 -0.000489149 0.000231573 0.00153351 5e-05 -0.0455529 -0.0233597 -0.0525504 0 0 -5.1365e-09 
210 1 -0.000457789 0.000321271 0.00161197 5e-05 -0.0721476 -0.000316685 -0.00107686 0 0 -5.1365e-09 
116 1 -0.000330454 0.000336137 0.00155226 5e-05 -0.0356847 -0.0133792 0.0331021 0 0 -5.1365e-09 
95 1 -0.000369406 0.000227668 0.00152689 5e-05 -0.0154118 -0.00874553 -0.0820106 0 0 -5.1365e-09 
129 1 -0.000263693 0.00027507 0.00160946 5e-05 -0.0455323 -0.0154128 -0.0126409 0 0 -5.1365e-09 
238 1 -0.000344929 0.000310012 0.00165976 5e-05 -0.00825206 0.00659054 -0.00458027 0 0 -5.1365e-09 
202 1 -0.000182741 0.000305147 0.00155225 5e-05 -0.0285621 0.0103184 0.00407845 0 0 -5.1365e-09 
546 1 -0.000229204 0.000394879 0.00165846 5e-05 -0.0143528 -0.00866547 -0.00177278 0 0 -5.1365e-09 
280 1 -9.03741e-05 0.000315953 0.0016025 5e-05 -0.0271438 0.0140194 -0.00488343 0 0 -5.1365e-09 
273 1 -1.17503e-05 0.000335177 0.00153935 5e-05 -0.0161212 0.00848406 -0.0132759 0 0 -5.1365e-09 
163 1 -6.10418e-06 0.000323948 0.00165619 5e-05 -0.0293657 0.00677193 0.0151444 0 0 -5.1365e-09 
499 1 5.64836e-05 0.000279228 0.00158659 5e-05 -0.0157391 0.0159958 -0.0116736 0 0 -5.1365e-09 
543 1 -8.06674e-05 0.000249446 0.00167803 5e-05 -0.0262176 0.0282699 -0.0143182 0 0 -5.1365e-09 
521 1 0.000153408 0.000275892 0.00155083 5e-05 -0.0160372 0.00804638 0.00610435 0 0 -5.1365e-09 
498 1 0.000207089 0.000365155 0.0015542 5e-05 -0.010155 0.0193922 0.00869685 0 0 -5.1365e-09 
300 1 0.000131527 0.00035065 0.00162753 5e-05 -0.011539 0.00977486 0.0139149 0 0 -5.1365e-09 
134 1 0.000252217 0.000250182 0.00154998 5e-05 -0.015154 0.0247649 -0.000202336 -4.23841e-07 -4.57623e-07 3.20841e-07 
72 1 0.000324134 0.000305737 0.0015916 5e-05 -0.00520138 0.0112409 -0.0158942 5.86463e-07 6.02163e-07 4.01666e-07 
71 1 0.000382111 0.000381206 0.00164704 5e-05 -0.0327936 -0.00838777 0.0120995 0 0 -5.1365e-09 
566 1 0.000255301 0.000358298 0.00165257 5e-05 0.00813122 -0.00246364 -0.0222139 0 0 -5.1365e-09 
413 1 0.000395247 0.000241541 0.00150637 5e-05 0.00374374 0.00756114 -0.0316528 0 0 -5.1365e-09 
290 1 0.000401702 0.00034507 0.00153817 5e-05 0.00721955 0.0263745 -0.00955912 0 0 -5.1365e-09 
244 1 0.000492752 0.000271768 0.00148189 5e-05 0.0300419 -0.0172574 -0.106904 0 0 -5.1365e-09 
444 1 0.000444537 0.000266385 0.00159424 5e-05 -0.00215506 -0.0324282 -0.0375305 5.34157e-07 5.84245e-07 3.5505e-09 
419 1 0.000481901 0.000369769 0.00159352 5e-05 -0.00289651 -0.0198176 -0.0292077 0 0 -5.1365e-09 
408 1 -0.000423764 0.000416713 0.00155265 5e-05 0.00481914 -0.0346783 -0.0508013 0 0 -5.1365e-09 
505 1 -0.000342494 0.000485525 0.00154387 5e-05 0.0218299 -0.0400159 -0.0306772 0 0 -5.1365e-09 