ITEM: TIMESTEP
14000
ITEM: NUMBER OF ATOMS
571
ITEM: BOX BOUNDS ff ff ff
-0.001 0.001
-0.001 0.001
0 0.004
ITEM: ATOMS id type x y z radius vx vy vz fx fy fz 
453 1 -0.00026718 -0.000419519 0.00113096 5e-05 0.0382751 0.0272204 -0.087872 0 0 -5.1365e-09 
328 1 0.000167861 -0.000397816 0.00113581 5e-05 -0.0452049 0.00674861 -0.127243 0 0 -5.1365e-09 
73 1 0.000268967 -0.000400313 0.00115644 5e-05 -0.0457472 0.0282544 -0.07595 0 0 -5.1365e-09 
242 1 -0.000169949 -0.000308707 0.00113475 5e-05 0.0697022 0.0314788 -0.131587 0 0 -5.1365e-09 
551 1 -3.64829e-05 -0.000390942 0.00108013 5e-05 0.073647 -0.0171856 -0.142517 0 0 -5.1365e-09 
526 1 0.000314726 -0.000299489 0.00107022 5e-05 0.00789704 -0.0100781 -0.149707 0 0 -5.1365e-09 
199 1 0.000394065 -0.000308164 0.00116586 5e-05 -0.0118207 0.0350497 -0.0988513 0 0 -5.1365e-09 
24 1 0.00045195 -0.000217005 0.00118249 5e-05 -0.0306822 0.0433079 -0.0985439 0 0 -5.1365e-09 
318 1 0.000396739 -0.000222267 0.00106914 5e-05 0.0125187 -0.0145141 -0.144864 0 0 -5.1365e-09 
490 1 0.000475406 -8.70754e-05 0.00108439 5e-05 -0.0576836 0.0149381 -0.0822406 0 0 -5.1365e-09 
468 1 -0.00044862 4.76923e-05 0.00110283 5e-05 0 0 -0.137335 0 0 -5.1365e-09 
186 1 0.000448051 2.65222e-05 0.00112882 5e-05 0.00462795 0.0211764 -0.143825 0 0 -5.1365e-09 
243 1 -0.000462438 0.000148883 0.00111613 5e-05 -0.0138007 -0.00803925 -0.148101 0 0 -5.1365e-09 
209 1 -0.000266696 0.000148847 0.00102199 5e-05 0.0181101 -0.0378152 -0.175546 0 0 -5.1365e-09 
252 1 -0.000343652 0.000173409 0.00108191 5e-05 0.00470089 -0.00667097 -0.15989 0 0 -5.1365e-09 
182 1 -0.000357717 9.21456e-05 0.00114743 5e-05 -0.0237037 -0.0257596 -0.146777 0 0 -5.1365e-09 
353 1 -0.000155341 0.000204076 0.00109349 5e-05 0.000644034 -0.000277811 -0.137639 0 0 -5.1365e-09 
308 1 -0.000325247 0.000323883 0.00108639 5e-05 0.0625245 -0.0617706 -0.0554932 0 0 -5.1365e-09 
529 1 0.000203085 0.000386217 0.0010539 5e-05 -0.00957645 0.00921112 -0.157742 0 0 -5.1365e-09 
128 1 -0.000324677 0.000388782 0.00118717 5e-05 0.00944859 -0.0283672 -0.0963225 0 0 -5.1365e-09 
425 1 -0.000203888 0.000420505 0.00116559 5e-05 0.0307473 -0.0265059 -0.11878 0 0 -5.1365e-09 
422 1 0.000260501 0.000436905 0.00117 5e-05 -0.0331744 -0.00503889 -0.11678 0 0 -5.1365e-09 
89 1 -0.000217918 -0.000469018 0.00122669 5e-05 0.0584456 0.0254538 -0.112205 0 0 -5.1365e-09 
401 1 0.000162002 -0.000491464 0.00129502 5e-05 -0.012969 0.0577479 -0.038655 0 0 -5.1365e-09 
528 1 0.000269065 -0.000470853 0.00130423 5e-05 -0.0443206 -0.00332363 -0.0793553 0 0 -5.1365e-09 
558 1 0.000354551 -0.000398189 0.00126431 5e-05 -0.0121181 0.00326815 -0.139728 0 0 -5.1365e-09 
379 1 -0.000341087 -0.000346271 0.00127657 5e-05 0.0352849 0.0118298 -0.0805023 0 0 -5.1365e-09 
250 1 0.000155384 -0.000264721 0.00121222 5e-05 -0.0419036 0.0383626 -0.137672 0 0 -5.1365e-09 
23 1 0.000207521 -0.00037162 0.00127615 5e-05 -0.0274172 -0.0109053 -0.121706 0 0 -5.1365e-09 
322 1 0.000284038 -0.000306348 0.00119909 5e-05 -0.0429612 0.0567034 -0.106583 0 0 -5.1365e-09 
299 1 0.000287656 -0.000278366 0.00130059 5e-05 0.0141372 -0.0212977 -0.124191 0 0 -5.1365e-09 
222 1 0.000418817 -0.000298952 0.00127206 5e-05 -0.0404965 0.0126289 -0.141299 0 0 -5.1365e-09 
251 1 0.000190616 -0.000219713 0.00130771 5e-05 -0.00535483 -0.0423377 -0.10471 0 0 -5.1365e-09 
36 1 0.00023057 -0.000168477 0.00121328 5e-05 -0.037689 0.0126158 -0.13383 0 0 -5.1365e-09 
508 1 0.000352286 -0.000196086 0.00125785 5e-05 -0.00600103 0.0216546 -0.122168 0 0 -5.1365e-09 
350 1 0.000454905 -8.96898e-05 0.00120874 5e-05 0.0183244 0.00397339 -0.130434 0 0 -5.1365e-09 
37 1 0.000495928 -0.0002144 0.00127417 5e-05 -0.0763388 0.0277436 -0.0334161 0 0 -5.1365e-09 
285 1 -0.00037876 6.13333e-05 0.00127286 5e-05 -0.0139994 -0.00769787 -0.123511 0 0 -5.1365e-09 
132 1 0.000323021 -6.09392e-05 0.00130141 5e-05 0.0041427 0.0134566 -0.111634 0 0 -5.1365e-09 
367 1 -0.00048749 0.000106483 0.00122796 5e-05 -0.0295221 -0.008453 -0.139085 0 0 -5.1365e-09 
326 1 -0.000385304 0.000202289 0.00122532 5e-05 0.027328 -0.0479399 -0.145812 0 0 -5.1365e-09 
509 1 -0.000487035 0.000208236 0.00123522 5e-05 0.0427159 -0.032749 -0.0711505 0 0 -5.1365e-09 
485 1 -0.000298444 0.000190562 0.00128414 5e-05 -0.00357929 -0.0357936 -0.11405 0 0 -5.1365e-09 
235 1 -0.000230152 0.00013767 0.00120199 5e-05 0.00101419 -0.0150421 -0.140662 0 0 -5.1365e-09 
471 1 -0.000399646 0.00031975 0.00119583 5e-05 -0.00191979 0.0215397 -0.108173 0 0 -5.1365e-09 
482 1 -0.000467911 0.000275013 0.00130844 5e-05 -0.0250891 -0.0157553 -0.113303 0 0 -5.1365e-09 
157 1 -0.000248048 0.000314028 0.00120728 5e-05 0.0365469 -0.0584592 -0.143998 0 0 -5.1365e-09 
183 1 -0.000309707 0.00030825 0.00132066 5e-05 0.0135463 -0.0158125 -0.118623 0 0 -5.1365e-09 
115 1 -0.000208288 0.000305345 0.0013293 5e-05 0.0431607 -0.0127132 -0.110925 0 0 -5.1365e-09 
475 1 -0.000155899 0.000263547 0.00125144 5e-05 0.0103076 -0.00838331 -0.127604 0 0 -5.1365e-09 
90 1 0.00021053 0.000385122 0.00133993 5e-05 0.00370116 0.0357083 -0.0873044 0 0 -5.1365e-09 
57 1 0.000257741 0.000320375 0.00124555 5e-05 -0.0395586 -0.0222407 -0.108697 0 0 -5.1365e-09 
493 1 0.000384958 0.000309848 0.00124478 5e-05 -0.0215535 -0.0276797 -0.0893425 0 0 -5.1365e-09 
10 1 -0.000391582 0.00036459 0.00133907 5e-05 0.0301474 -0.0554804 -0.101588 0 0 -5.1365e-09 
384 1 -0.000138912 0.00048118 0.0012989 5e-05 0.0257253 0.00980323 -0.0666338 0 0 -5.1365e-09 
196 1 -8.74517e-05 -0.000544529 0.00140252 5e-05 0.0799509 0.0726779 -0.0452897 0 0 -5.1365e-09 
107 1 0.000134301 -0.000565716 0.00148662 5e-05 0.0795832 0.0375233 -0.0259915 0 0 -5.1365e-09 
473 1 -0.000281904 -0.000440951 0.00141785 5e-05 0.0117514 -0.00577641 -0.0673401 0 0 -5.1365e-09 
489 1 -0.000179574 -0.000394938 0.0014275 5e-05 0.0845238 -0.00056201 -0.0662841 0 0 -5.1365e-09 
42 1 -0.000146671 -0.000521647 0.00150931 5e-05 0.0550674 -0.0573421 -0.0669826 0 0 -5.1365e-09 
538 1 -6.18084e-05 -0.000454426 0.00150107 5e-05 0.0430054 -0.014352 -0.0863074 0 0 -5.1365e-09 
291 1 0.000209284 -0.000491567 0.00145093 5e-05 0.0071593 0.0115899 -0.0574291 0 0 -5.1365e-09 
402 1 0.000326542 -0.000416873 0.00137 5e-05 0.00486569 0.0185133 -0.0796498 0 0 -5.1365e-09 
331 1 0.000408565 -0.000385546 0.00145226 5e-05 -0.0121062 0.0441442 -0.105149 0 0 -5.1365e-09 
449 1 -0.000479729 -0.000244619 0.00143893 5e-05 0.0559059 0.0356363 -0.0474593 0 0 -5.1365e-09 
305 1 -0.000100518 -0.000326091 0.00144341 5e-05 0.0308566 -0.0175961 -0.0929701 0 0 -5.1365e-09 
541 1 0.000228495 -0.000272007 0.00140861 5e-05 -0.000131465 -0.0147496 -0.123877 0 0 -5.1365e-09 
141 1 0.00028659 -0.000336468 0.00150492 5e-05 0.0308128 -0.00193922 -0.0563341 0 0 -5.1365e-09 
381 1 0.000328225 -0.000308847 0.00139723 5e-05 -0.00241465 -0.0260873 -0.122466 0 0 -5.1365e-09 
13 1 0.000455495 -0.000280382 0.00140029 5e-05 -0.000534443 0.0253238 -0.0891176 0 0 -5.1365e-09 
168 1 -0.000557481 -0.000107962 0.00147357 5e-05 -0.0236169 0.0349757 -0.100154 0 0 -5.1365e-09 
25 1 0.000243514 -0.000159479 0.00149568 5e-05 0.0301746 -0.018661 -0.104925 0 0 -5.1365e-09 
86 1 0.000390426 -0.000177258 0.00135196 5e-05 0.0390649 0.00267938 -0.114424 0 0 -5.1365e-09 
50 1 0.000510656 -6.30041e-05 0.00137853 5e-05 0.0391636 0.0406016 -0.102452 0 0 -5.1365e-09 
136 1 0.000500235 -0.000202268 0.00145221 5e-05 0.0456526 -0.0507372 -0.129855 0 0 -5.1365e-09 
387 1 -0.000564332 2.88386e-05 0.00148904 5e-05 -0.0334975 -0.0270138 -0.113556 0 0 -5.1365e-09 
239 1 -0.000444104 1.08872e-05 0.00144141 5e-05 -0.0198965 0.0213925 -0.0555739 0 0 -5.1365e-09 
153 1 -0.000222567 5.43237e-05 0.00137894 5e-05 -0.00443353 -0.0346912 -0.0888728 0 0 -5.1365e-09 
91 1 0.000234311 -5.61701e-05 0.00150589 5e-05 0.0341892 -0.0280271 -0.0571004 0 0 -5.1365e-09 
459 1 0.000336708 -6.04233e-05 0.00146286 5e-05 0.0214835 0.0051617 -0.0930027 0 0 -5.1365e-09 
441 1 0.000450303 4.9208e-06 0.00143849 5e-05 0.0482085 0.00826703 -0.0918278 0 0 -5.1365e-09 
26 1 -0.000548762 0.000140064 0.00148877 5e-05 -0.0323087 -6.39634e-05 -0.0652127 0 0 -5.1365e-09 
463 1 -0.00050336 0.000190174 0.00137149 5e-05 0.0782765 -0.0249417 -0.0726678 0 0 -5.1365e-09 
49 1 -0.00042179 0.000178647 0.00144591 5e-05 0.0761664 0.0177482 -0.119647 0 0 -5.1365e-09 
321 1 -0.000365773 8.64527e-05 0.00139836 5e-05 -0.0518833 -0.000129359 -0.116422 0 0 -5.1365e-09 
213 1 -0.000235611 0.000180975 0.00144793 5e-05 0.0190519 -0.0154975 -0.0762344 0 0 -5.1365e-09 
497 1 0.000423178 0.000124605 0.00151585 5e-05 0.0510917 0.0347056 -0.0382508 0 0 -5.1365e-09 
84 1 0.000574243 8.84558e-05 0.00149334 5e-05 0.0324911 0.0136213 -0.0794555 0 0 -5.1365e-09 
123 1 -0.000473929 0.000296549 0.00140766 5e-05 0.0508183 -0.0732769 -0.0762466 0 0 -5.1365e-09 
311 1 -0.000343692 0.000245004 0.00142207 5e-05 -0.0228992 0.014721 -0.103242 0 0 -5.1365e-09 
388 1 -0.000326381 0.000334015 0.00148846 5e-05 -0.040483 -0.0137947 -0.0968229 0 0 -5.1365e-09 
74 1 0.000496392 0.000302204 0.0014901 5e-05 -0.0079514 -0.00607506 -0.0815149 0 0 -5.1365e-09 
393 1 -0.000412767 0.000375035 0.00143674 5e-05 -0.00704865 -0.0368646 -0.0999471 0 0 -5.1365e-09 
537 1 -0.000344908 0.000441795 0.00140242 5e-05 0.0167883 -0.0554144 -0.0664719 0 0 -5.1365e-09 
108 1 -0.000258814 0.000395437 0.00143497 5e-05 0.00053224 -0.0215996 -0.0844279 0 0 -5.1365e-09 
560 1 -0.000246746 0.000516097 0.00149615 5e-05 -0.0773145 0.0273446 -0.0595649 0 0 -5.1365e-09 
358 1 0.000182246 0.000448785 0.00145511 5e-05 -0.0365392 -0.0214607 -0.0682648 0 0 -5.1365e-09 
60 1 0.000229086 0.000499099 0.00137145 5e-05 -0.0257633 -0.0369284 -0.107221 0 0 -5.1365e-09 
228 1 0.000286568 0.000439597 0.00143242 5e-05 -0.0439509 -0.0505929 -0.0293102 0 0 -5.1365e-09 
218 1 0.000400192 0.000430268 0.00151399 5e-05 -0.0223081 0.0306586 -0.0302375 0 0 -5.1365e-09 
476 1 0.000216528 0.000543869 0.00149574 5e-05 -0.0490106 -0.0244449 -0.068156 0 0 -5.1365e-09 
207 1 -0.000197386 -0.000577864 0.00163584 5e-05 0.00783791 0.0779885 0.0204175 0 0 -5.1365e-09 
553 1 -3.7599e-05 -0.000606723 0.00157441 5e-05 0.0610327 -0.0047215 -0.00207516 0 0 -5.1365e-09 
298 1 5.39313e-05 -0.000566152 0.00154942 5e-05 0.0316044 -0.0310967 -0.0124444 0 0 -5.1365e-09 
569 1 -4.03571e-06 -0.000565007 0.00167405 5e-05 0.0560148 -0.00327851 0.039472 0 0 -5.1365e-09 
118 1 0.000257062 -0.000540441 0.00160886 5e-05 0.0342275 0.0149393 -0.0170335 0 0 -5.1365e-09 
113 1 -0.000442854 -0.00040287 0.00155828 5e-05 0.00216588 0.0170113 -0.0398672 0 0 -5.1365e-09 
67 1 -0.000384867 -0.000475266 0.00160095 5e-05 0.0437569 0.0131874 -0.0555996 0 0 -5.1365e-09 
9 1 -0.000278372 -0.0004891 0.00152418 5e-05 0.0119697 -0.0298685 -0.0585236 0 0 -5.1365e-09 
283 1 -0.000277584 -0.000486732 0.00164891 5e-05 0.0634425 -0.0750935 -0.0185112 0 0 -5.1365e-09 
317 1 -7.06549e-05 -0.000510673 0.00158484 5e-05 0.0323489 0.0152411 -0.0544721 0 0 -5.1365e-09 
523 1 -0.000213194 -0.000405635 0.00160044 5e-05 0.00585594 -0.00183989 -0.0372912 0 0 -5.1365e-09 
375 1 -0.000132404 -0.000459153 0.00164775 5e-05 0.0374478 -0.0406687 -0.0329675 0 0 -5.1365e-09 
536 1 2.47339e-05 -0.00047891 0.00161494 5e-05 -0.0279164 -0.0982797 -0.0260926 0 0 -5.1365e-09 
188 1 0.000101249 -0.000474626 0.00155029 5e-05 -0.00919363 0.0185817 0.0242355 4.62575e-07 -2.06364e-06 -1.72583e-06 
545 1 0.000165574 -0.000491578 0.00163281 5e-05 0.00935462 -0.0305087 0.00347614 0 0 -5.1365e-09 
156 1 0.000216942 -0.000424044 0.00155697 5e-05 0.0465559 0.0183913 0.0115415 0 0 -5.1365e-09 
236 1 0.000130037 -0.000399525 0.00160951 5e-05 0.0250006 -0.0277806 -0.0465432 -4.62575e-07 2.06364e-06 1.71556e-06 
296 1 0.00035835 -0.000449765 0.00151904 5e-05 -0.0140346 0.0269995 -0.0245035 0 0 -5.1365e-09 
316 1 0.00031126 -0.00040281 0.00162033 5e-05 0.0440605 -0.0175524 -0.067375 0 0 -5.1365e-09 
159 1 0.000432686 -0.000406468 0.00157611 5e-05 -0.035223 0.00728058 -0.0663947 0 0 -5.1365e-09 
227 1 -0.00046048 -0.000308926 0.00152551 5e-05 -0.0512271 -0.0206119 -0.0383705 0 0 -5.1365e-09 
51 1 -0.000478972 -0.000213877 0.00164811 5e-05 0.0433 0.0272418 -0.0402353 0 0 -5.1365e-09 
514 1 -0.00049828 -0.000333128 0.00164322 5e-05 -0.00986917 0.0348986 -0.053267 0 0 -5.1365e-09 
29 1 -0.000385821 -0.000276087 0.00158942 5e-05 -0.0331288 -0.0233228 -0.0528559 0 0 -5.1365e-09 
99 1 -0.00027031 -0.00029324 0.00156793 5e-05 -0.00439425 -0.0130558 -0.060306 0 0 -5.1365e-09 
335 1 -0.0003197 -0.00038215 0.00155453 5e-05 0.0146046 -0.0306559 0.00896573 0 0 -5.1365e-09 
68 1 -0.000378485 -0.000370998 0.00164001 5e-05 -0.0249274 -0.0098131 0.0141131 0 0 -5.1365e-09 
167 1 -0.000237637 -0.000314414 0.00166212 5e-05 -0.0363484 -0.0486472 -0.0540867 0 0 -5.1365e-09 
549 1 -0.000120672 -0.000379783 0.00154338 5e-05 0.0204397 -0.0219924 -0.0765288 0 0 -5.1365e-09 
534 1 -0.000175964 -0.000242043 0.00163065 5e-05 -0.0185774 -0.00413895 0.000493078 -7.33782e-08 -1.64517e-07 1.0312e-07 
4 1 -0.000142269 -0.000353482 0.00166321 5e-05 0.0294257 -0.0225555 -0.0771438 0 0 -5.1365e-09 
382 1 2.49643e-05 -0.000383379 0.00155875 5e-05 0.0263198 -0.0466371 0.00512092 0 0 -5.1365e-09 
427 1 -7.16368e-05 -0.000276398 0.00155017 5e-05 -0.0189677 -0.0255297 -0.0670602 0 0 -5.1365e-09 
3 1 -5.1839e-05 -0.000392095 0.00162661 5e-05 0.00448386 -0.036249 -0.0364385 0 0 -5.1365e-09 
131 1 3.95711e-05 -0.000270432 0.00155068 5e-05 -0.00344181 -0.0216925 0.00730784 0 0 -5.1365e-09 
554 1 -9.11915e-06 -0.000294098 0.00163668 5e-05 -0.0271338 -0.0274113 0.00936406 0 0 -5.1365e-09 
22 1 0.000108122 -0.000295341 0.00162616 5e-05 0.00118865 -0.0304786 0.0214838 0 0 -5.1365e-09 
70 1 0.000172396 -0.000318582 0.00155133 5e-05 -0.00917406 0.0297466 -0.0394946 0 0 -5.1365e-09 
114 1 0.000230261 -0.000344975 0.00163097 5e-05 -0.0319102 0.0176501 -0.0399027 1.70382e-06 -1.38045e-06 -1.312e-06 
434 1 0.000378175 -0.000293256 0.00149636 5e-05 0.0449044 0.0290511 -0.133698 0 0 -5.1365e-09 
78 1 0.000291001 -0.00023942 0.00154994 5e-05 -0.0239103 0.0294526 -0.0524394 0 0 -5.1365e-09 
35 1 0.000453673 -0.000308096 0.00158396 5e-05 0.0251192 0.0194184 -0.0937599 0 0 -5.1365e-09 
337 1 -0.000559564 -0.00021522 0.00158831 5e-05 -0.0228865 0.0423395 -0.0532182 0 0 -5.1365e-09 
355 1 -0.000596979 -8.34281e-05 0.00166098 5e-05 0.0682571 0.0534908 -0.0306293 0 0 -5.1365e-09 
342 1 -0.000444184 -0.00018333 0.00155435 5e-05 0.0111379 -0.0341477 -0.00830323 0 0 -5.1365e-09 
429 1 -0.000502843 -9.43032e-05 0.00157453 5e-05 -0.0404044 0.0275538 -0.0776461 0 0 -5.1365e-09 
43 1 -0.000237739 -0.000193936 0.00155679 5e-05 0.00251834 0.0127288 -0.0120801 0 0 -5.1365e-09 
281 1 -0.00036026 -0.000127991 0.00156293 5e-05 -0.0195466 0.00863974 -0.0513963 0 0 -5.1365e-09 
400 1 -0.000324679 -0.000221301 0.00164843 5e-05 0.00889331 -0.0188315 -0.0734966 0 0 -5.1365e-09 
80 1 -0.000185262 -0.000103979 0.0015538 5e-05 -0.0198576 -0.0105839 0.0122495 0 0 -5.1365e-09 
81 1 -0.000135372 -0.000198913 0.0015501 5e-05 0.023482 0.0073542 -0.00399347 7.33782e-08 1.64517e-07 -1.13393e-07 
343 1 -0.000233819 -0.00013912 0.00164164 5e-05 -0.023046 0.00511905 -0.0340535 2.994e-07 2.14016e-07 -3.34585e-07 
309 1 -0.000125353 -0.000120088 0.00163228 5e-05 0.00144725 0.000355658 0.00379326 0 0 -5.1365e-09 
555 1 -6.57219e-05 -0.000126183 0.0015504 5e-05 0.00395001 -0.0142095 0.00420991 0 0 -5.1365e-09 
405 1 3.80993e-05 -0.000116724 0.00155766 5e-05 0.00261585 -0.0335308 0.00435378 0 0 -5.1365e-09 
376 1 3.40422e-05 -0.000197633 0.00161936 5e-05 -0.0164778 0.0142165 -0.0571467 0 0 -5.1365e-09 
124 1 -2.3431e-05 -8.03883e-05 0.00162879 5e-05 0.0125605 0.0179946 -0.00805371 -9.51428e-08 -2.92195e-07 -1.66725e-07 
104 1 -6.3534e-05 -0.000201564 0.00164109 5e-05 -0.0015476 -0.0271083 -0.0321573 0 0 -5.1365e-09 
414 1 0.000122324 -0.000203 0.00155592 5e-05 0.0189966 -0.0282596 -0.0248022 0 0 -5.1365e-09 
293 1 0.000134255 -0.000188624 0.00165592 5e-05 0.014083 -0.00790007 0.00540102 0 0 -5.1365e-09 
170 1 0.000234721 -0.000140402 0.00159464 5e-05 0.0159784 -0.0129128 -0.093715 0 0 -5.1365e-09 
98 1 0.000137245 -9.71552e-05 0.00155746 5e-05 -0.00562795 0.010071 -0.0770657 0 0 -5.1365e-09 
77 1 0.000151807 -8.87439e-05 0.00167364 5e-05 0.0336444 -0.0226308 -0.0273857 0 0 -5.1365e-09 
17 1 0.000349616 -0.00014567 0.00151375 5e-05 0.0047881 0.00302831 -0.101314 0 0 -5.1365e-09 
121 1 0.000431852 -0.000211083 0.00153573 5e-05 0.0306675 0.0192139 -0.100148 0 0 -5.1365e-09 
274 1 0.000435689 -0.000224343 0.00164166 5e-05 0.0427254 0.000551383 -0.115407 0 0 -5.1365e-09 
447 1 0.00051437 -0.000179695 0.00159478 5e-05 0.052033 -0.0110037 -0.0938976 0 0 -5.1365e-09 
363 1 -0.000456745 1.35167e-05 0.00155684 5e-05 -0.0363384 0.0109332 -0.107025 0 0 -5.1365e-09 
160 1 -0.000413751 -5.90712e-05 0.00162458 5e-05 -0.0696882 0.00925187 -0.0975314 0 0 -5.1365e-09 
45 1 -0.000511392 -5.34563e-06 0.00166378 5e-05 -0.0430429 0.0720322 -0.0122748 0 0 -5.1365e-09 
92 1 -0.00028289 -5.04564e-05 0.00154699 5e-05 -0.0499878 -0.000433365 -0.0394654 0 0 -5.1365e-09 
30 1 -0.000304048 1.61933e-05 0.00162063 5e-05 0.00449447 0.0153582 -0.0716166 -2.79645e-06 -3.21022e-06 -5.84872e-07 
40 1 -0.000108778 -1.24865e-05 0.00155004 5e-05 0.00184424 0.000318081 0.0011969 0 0 -5.1365e-09 
455 1 -0.000207826 -2.72768e-05 0.00161421 5e-05 0.00215525 0.0307196 -0.0266074 0 0 -5.1365e-09 
359 1 -6.33835e-05 3.98158e-05 0.00163156 5e-05 0.00635173 0.00928987 0.0131387 1.78166e-07 -6.79153e-07 2.11335e-06 
446 1 3.63785e-05 -1.20747e-05 0.00155052 5e-05 0.00205868 -0.00981479 0.00488583 0 0 -5.1365e-09 
559 1 6.80489e-05 -3.14904e-05 0.00165017 5e-05 -0.0169266 -0.0481397 -0.0125206 7.48635e-07 2.47375e-07 -4.6081e-07 
158 1 0.00013285 3.71718e-05 0.00155057 5e-05 -0.0112086 0.00564507 -0.0164536 0 0 -5.1365e-09 
454 1 0.000201747 -2.08716e-05 0.00159533 5e-05 0.0125426 -0.00201765 -0.0844268 0 0 -5.1365e-09 
256 1 0.000271547 3.10226e-05 0.00154289 5e-05 0.0370319 -0.00633024 -0.029974 0 0 -5.1365e-09 
287 1 0.000371991 2.6707e-05 0.00154585 5e-05 0.0480765 0.0111472 -0.0819699 0 0 -5.1365e-09 
261 1 0.000316084 -4.94029e-05 0.00158554 5e-05 0.0150988 0.00959778 -0.0828557 0 0 -5.1365e-09 
266 1 0.000534182 -3.87943e-05 0.00153543 5e-05 0.0428252 -0.0221988 -0.0846501 0 0 -5.1365e-09 
457 1 0.000428839 -7.0692e-05 0.0015478 5e-05 0.0464734 -0.0217268 -0.104484 0 0 -5.1365e-09 
208 1 0.000591818 1.36474e-05 0.00162289 5e-05 -0.0867038 -0.0617018 0.000731617 0 0 -5.1365e-09 
438 1 -0.000574615 0.000107822 0.00158021 5e-05 -0.0421397 -0.0280385 -0.0328777 0 0 -5.1365e-09 
75 1 -0.000471711 0.000128485 0.00159927 5e-05 -0.0601192 -0.0283586 -0.0694892 0 0 -5.1365e-09 
351 1 -0.000543722 0.00020565 0.00164444 5e-05 -0.0535441 -0.00193966 -0.0446984 0 0 -5.1365e-09 
421 1 -0.000436471 0.000220287 0.00158068 5e-05 -0.0659191 0.00721618 -0.0730325 0 0 -5.1365e-09 
383 1 -0.00033612 0.000117999 0.00154929 5e-05 -0.0477321 0.0153065 -0.0632599 0 0 -5.1365e-09 
324 1 -0.000342062 0.000184017 0.00163834 5e-05 -0.0416995 -0.018946 -0.0768191 3.59302e-07 1.34702e-06 -1.00537e-06 
347 1 -0.000240177 0.00018121 0.00160126 5e-05 -0.050415 -0.00918741 -0.0205551 0 0 -5.1365e-09 
564 1 -0.000234068 9.22843e-05 0.00152442 5e-05 -0.0139631 -0.0140303 -0.08865 0 0 -5.1365e-09 
472 1 -9.52655e-05 8.78975e-05 0.00155002 5e-05 -0.0380115 0.00199216 0.0266538 -1.78166e-07 6.79153e-07 -2.12363e-06 
364 1 -0.000150247 0.000173163 0.00155242 5e-05 0.0116581 -0.00130013 0.0114259 0 0 -5.1365e-09 
142 1 -0.000227171 7.96894e-05 0.00162411 5e-05 -0.021185 0.00841463 -0.0831812 2.79645e-06 3.21022e-06 5.74599e-07 
481 1 -0.00012988 0.000221015 0.00163896 5e-05 -0.00792561 -0.0321771 0.0531041 0 0 -5.1365e-09 
169 1 8.52104e-06 8.86742e-05 0.00157946 5e-05 0.0185516 0.0216559 -0.0340938 0 0 -5.1365e-09 
192 1 -3.02898e-05 0.000179392 0.00155073 5e-05 -0.0165362 0.0241276 0.000570447 0 0 -5.1365e-09 
428 1 -6.77778e-05 0.000140049 0.00163611 5e-05 -0.0347341 -0.00148036 -0.00108637 -1.27257e-06 -2.11443e-06 -2.52481e-06 
259 1 2.99731e-05 0.000169571 0.00163451 5e-05 -0.0183834 0.00601769 -0.015167 3.37444e-06 -3.45047e-07 -2.14738e-06 
406 1 8.37858e-05 0.000165522 0.0015503 5e-05 -0.00349242 0.0332197 0.01033 0 0 -5.1365e-09 
161 1 0.000183313 0.000130538 0.00156072 5e-05 -0.0127584 -0.0161715 -0.0137561 0 0 -5.1365e-09 
66 1 0.000214238 0.000199753 0.00163383 5e-05 0.0415181 -0.00777391 -0.0131905 0 0 -5.1365e-09 
524 1 0.000125318 9.37912e-05 0.00163349 5e-05 0.0068277 0.00555456 -0.0370914 0 0 -5.1365e-09 
134 1 0.000267878 0.000233965 0.00155038 5e-05 -0.0274323 -0.00187633 0.00223826 9.97764e-07 1.9382e-07 -4.05974e-07 
413 1 0.000382915 0.000227292 0.00156891 5e-05 0.00927887 0.0269637 0.0149475 0 0 -5.1365e-09 
225 1 0.000315855 0.000147611 0.00158028 5e-05 0.0143447 -0.0111024 -0.0497361 0 0 -5.1365e-09 
82 1 0.000242569 7.22228e-05 0.00163892 5e-05 0.00646627 -0.0338897 -0.0128664 0 0 -5.1365e-09 
371 1 0.000300537 0.000199876 0.00169003 5e-05 0.040685 0.0110235 0.00856724 0 0 -5.1365e-09 
11 1 0.000513786 9.92217e-05 0.00157804 5e-05 0.0679482 -0.0312428 -0.0527502 0 0 -5.1365e-09 
282 1 0.00048634 0.000205603 0.00157547 5e-05 0.0288697 -0.0212208 -0.0332513 0 0 -5.1365e-09 
346 1 0.000409908 8.73302e-05 0.00162186 5e-05 0.0612152 0.00784528 -0.0711638 0 0 -5.1365e-09 
175 1 0.000599372 0.000167542 0.00165625 5e-05 0.0752709 0.00165592 -0.0488047 0 0 -5.1365e-09 
61 1 -0.000415491 0.000286014 0.00149338 5e-05 0.0637673 -0.0147218 -0.0470206 0 0 -5.1365e-09 
226 1 -0.000508062 0.000310178 0.00158212 5e-05 -0.0527833 -0.00797114 -0.12696 0 0 -5.1365e-09 
126 1 -0.000333161 0.000245473 0.00154951 5e-05 -0.0313588 0.0104773 -0.1145 0 0 -5.1365e-09 
47 1 -0.00036392 0.000335103 0.00160939 5e-05 -0.00925673 -0.0149893 -0.100115 0 0 -5.1365e-09 
116 1 -0.000273592 0.000368475 0.00164122 5e-05 -0.050226 -0.00983736 -0.08284 0 0 -5.1365e-09 
202 1 -0.000111269 0.000277964 0.00155097 5e-05 -0.052728 0.0519331 -0.0151548 0 0 -5.1365e-09 
33 1 -0.00015541 0.000374215 0.00155354 5e-05 -0.0302866 0.022609 -0.0160821 0 0 -5.1365e-09 
507 1 -0.000239253 0.000286911 0.001543 5e-05 -0.0373667 0.0093762 -0.081777 0 0 -5.1365e-09 
129 1 -0.000212613 0.000284855 0.00164353 5e-05 -0.0422679 -0.00942169 -0.118623 0 0 -5.1365e-09 
565 1 -0.000102034 0.000332435 0.00164402 5e-05 -0.0376464 0.0335498 -0.0509382 0 0 -5.1365e-09 
280 1 -3.71808e-05 0.000258094 0.00161663 5e-05 -0.0217135 0.0454413 -0.0254621 -2.39358e-07 5.98509e-08 -3.92158e-07 
273 1 3.01764e-05 0.000295092 0.00155174 5e-05 -0.00673619 0.0363549 0.00920594 0 0 -5.1365e-09 
394 1 -2.06268e-05 0.0003892 0.00158864 5e-05 -0.0251853 0.0711939 -0.0255079 0 0 -5.1365e-09 
535 1 8.07784e-05 0.00036157 0.00163381 5e-05 0.00817207 0.0301507 -0.0321995 0 0 -5.1365e-09 
499 1 9.5444e-05 0.000247874 0.00161971 5e-05 -0.0198276 0.0350839 -0.0158858 0 0 -5.1365e-09 
521 1 0.000168311 0.000242784 0.0015505 5e-05 0.0189289 0.0241301 0.00860993 -9.97764e-07 -1.9382e-07 3.95701e-07 
498 1 0.000226728 0.000325581 0.00156494 5e-05 -0.00909963 0.0165712 -0.0198905 0 0 -5.1365e-09 
181 1 0.000129516 0.000341102 0.00154546 5e-05 0.0125472 0.0165864 -0.0421275 0 0 -5.1365e-09 
72 1 0.000319288 0.000290424 0.00161626 5e-05 0.0236278 -0.0142204 0.024446 0 0 -5.1365e-09 
71 1 0.000372943 0.000364752 0.00165698 5e-05 -0.00914531 -0.0227274 -0.0814588 0 0 -5.1365e-09 
566 1 0.00026161 0.000367482 0.00165563 5e-05 -0.0136928 0.0370151 -0.0736292 0 0 -5.1365e-09 
290 1 0.000391663 0.000336717 0.00155647 5e-05 0.0289717 0.0171464 0.0314875 0 0 -5.1365e-09 
244 1 0.000492976 0.000314425 0.00160526 5e-05 0.0167374 -0.00139133 -0.0555715 0 0 -5.1365e-09 
444 1 0.000422605 0.000256392 0.00166675 5e-05 0.0279389 -0.00494969 -0.0336669 0 0 -5.1365e-09 
320 1 -0.000417327 0.000392777 0.00153539 5e-05 -0.0170122 -0.000781987 -0.102651 0 0 -5.1365e-09 
224 1 -0.000456965 0.000388141 0.00164404 5e-05 -0.0182753 -0.0226439 -0.115874 0 0 -5.1365e-09 
389 1 -0.000338166 0.000492941 0.00155417 5e-05 0.0404313 0.0322118 -0.107832 0 0 -5.1365e-09 
87 1 -0.000270616 0.000408888 0.00154144 5e-05 -0.0696754 0.0161048 -0.0933236 0 0 -5.1365e-09 
408 1 -0.000365758 0.000455681 0.00165134 5e-05 -0.00647528 0.0295207 -0.0953079 0 0 -5.1365e-09 
505 1 -0.000256505 0.000482197 0.00165048 5e-05 -0.0473387 -0.0353225 -0.0308559 0 0 -5.1365e-09 
223 1 -0.000167068 0.000495633 0.0016014 5e-05 -0.0636326 -0.0106098 0.0182214 0 0 -5.1365e-09 
486 1 -9.23302e-05 0.000502768 0.00166906 5e-05 0.00384621 0.0331282 -0.0164765 0 0 -5.1365e-09 
435 1 -8.66158e-05 0.000455809 0.00155302 5e-05 0.0312701 -0.00738026 -0.0309661 0 0 -5.1365e-09 
174 1 6.33307e-05 0.000426459 0.00154133 5e-05 -0.018107 0.0315995 -0.0191435 0 0 -5.1365e-09 
88 1 -1.00945e-05 0.000490269 0.00161317 5e-05 0.00848588 0.0588055 -0.0382987 0 0 -5.1365e-09 
140 1 0.000191353 0.000437545 0.00155455 5e-05 0.0238465 0.0477106 -0.0807401 0 0 -5.1365e-09 
494 1 0.00015251 0.000536001 0.00162255 5e-05 -0.0143913 0.0658019 -0.063532 0 0 -5.1365e-09 
106 1 0.000156827 0.000422386 0.00166502 5e-05 0.014949 0.00351743 -0.0739472 0 0 -5.1365e-09 
450 1 0.000308076 0.000392534 0.00156414 5e-05 -0.0010802 0.0334614 0.0594307 0 0 -5.1365e-09 
7 1 0.000291534 0.00047516 0.00164068 5e-05 -0.00783081 0.0745946 -0.00788781 0 0 -5.1365e-09 
391 1 0.000414611 0.000448411 0.00161157 5e-05 -0.00690259 -0.00829241 -0.051851 0 0 -5.1365e-09 
540 1 -0.000228988 0.000575922 0.00162019 5e-05 -0.00667355 0.0366061 0.0145004 0 0 -5.1365e-09 
548 1 -6.23483e-06 0.000594283 0.00154854 5e-05 -0.0376702 0.0472379 -0.00464292 0 0 -5.1365e-09 
173 1 -7.97551e-05 0.000595312 0.00161727 5e-05 -0.0287747 0.091713 -0.0216713 0 0 -5.1365e-09 
502 1 0.000100527 0.000576889 0.00152378 5e-05 -0.0450429 -0.0197891 -0.0431111 0 0 -5.1365e-09 
556 1 -0.000256753 -0.000579269 0.00172724 5e-05 0.0489147 0.0621377 0.000638127 0 0 -5.1365e-09 
416 1 -0.000367893 -0.000545534 0.00179786 5e-05 -0.00803799 -0.0204422 -0.0343407 0 0 -5.1365e-09 
516 1 -0.000421129 -0.000489818 0.00173016 5e-05 0.0126032 0.0192319 -0.0467489 0 0 -5.1365e-09 
85 1 -0.000294923 -0.0004627 0.00176377 5e-05 -0.0154245 -0.0544561 -0.0309641 0 0 -5.1365e-09 
284 1 -0.00021337 -0.000426424 0.00171387 5e-05 0.0190229 -0.011755 -0.0313533 0 0 -5.1365e-09 
200 1 -0.000132021 -0.000512877 0.00176656 5e-05 -0.00759541 -0.0585589 -0.0997494 0 0 -5.1365e-09 
14 1 -3.91618e-06 -0.00045594 0.00171134 5e-05 -0.0169978 -0.0176506 -0.0437849 0 0 -5.1365e-09 
373 1 9.83677e-05 -0.000560781 0.00169076 5e-05 0.00443353 -0.0779001 -0.0474843 0 0 -5.1365e-09 
513 1 0.000231417 -0.000563576 0.00170611 5e-05 0.0445195 -0.0717664 -0.0105853 0 0 -5.1365e-09 
511 1 0.000118567 -0.000444637 0.00170937 5e-05 -0.0607152 0.0015858 0.0510856 0 0 -5.1365e-09 
341 1 9.15338e-05 -0.000425293 0.00181699 5e-05 0.0233942 0.00173974 -0.0543941 0 0 -5.1365e-09 
398 1 0.000157376 -0.000533306 0.00177021 5e-05 0.0121065 -0.0938307 -0.0509365 0 0 -5.1365e-09 
255 1 0.000327477 -0.000510679 0.0016784 5e-05 0.0248034 -0.0365077 -0.106453 0 0 -5.1365e-09 
102 1 0.000248182 -0.000400784 0.00171802 5e-05 0.0526696 -0.0739783 0.0198791 0 0 -5.1365e-09 
278 1 0.000270794 -0.000441415 0.00182408 5e-05 -0.0126133 -0.0108331 -0.0556816 0 0 -5.1365e-09 
166 1 0.000415345 -0.00040642 0.00167803 5e-05 0.00741308 -0.00348566 -0.0824754 0 0 -5.1365e-09 
518 1 0.000467506 -0.000441096 0.00176352 5e-05 -0.0023843 0.0254091 -0.0892267 0 0 -5.1365e-09 
150 1 0.000380724 -0.000383123 0.00177593 5e-05 -0.0233311 0.0285666 -0.0874249 0 0 -5.1365e-09 
237 1 -0.000448613 -0.000384264 0.00172789 5e-05 -0.092799 -0.013806 -0.0249531 0 0 -5.1365e-09 
295 1 -0.000404674 -0.000287634 0.00169259 5e-05 -0.0306064 -0.0330045 -0.0858944 0 0 -5.1365e-09 
430 1 -0.000553529 -0.000283998 0.00176772 5e-05 -0.0609471 -0.0206152 -0.0636754 0 0 -5.1365e-09 
368 1 -0.000300936 -0.000316851 0.00174061 5e-05 -0.0193667 -0.0425117 -0.0696206 0 0 -5.1365e-09 
336 1 -0.000362669 -0.000383272 0.00178373 5e-05 -0.0286914 -0.0366918 -0.0906534 0 0 -5.1365e-09 
313 1 -0.00012292 -0.000250602 0.00171504 5e-05 0.0283596 -0.00250193 -0.0378819 0 0 -5.1365e-09 
306 1 -0.000132395 -0.00024239 0.00181672 5e-05 -0.0176999 -0.000118058 -0.0112085 0 0 -5.1365e-09 
377 1 -0.000188418 -0.000329274 0.00175621 5e-05 0.0153437 0.000871798 -0.0564172 0 0 -5.1365e-09 
257 1 -0.000101223 -0.00036203 0.00181467 5e-05 -0.0150728 -0.0325876 -0.08748 0 0 -5.1365e-09 
203 1 4.23939e-05 -0.000376785 0.00166362 5e-05 -0.00857764 -0.0624407 -0.076175 0 0 -5.1365e-09 
41 1 -5.11864e-05 -0.000322311 0.00172317 5e-05 -0.0171923 -0.0298279 0.0104597 0 0 -5.1365e-09 
279 1 5.82589e-05 -0.000247281 0.0017027 5e-05 0.024081 -0.0309265 -0.028313 0 0 -5.1365e-09 
478 1 6.28467e-05 -0.000336074 0.00176009 5e-05 0.006128 -0.0160482 -0.055752 0 0 -5.1365e-09 
361 1 0.000162104 -0.0003319 0.00170279 5e-05 0.0554295 -0.0448145 0.019938 -1.70382e-06 1.38045e-06 1.30172e-06 
144 1 0.000202894 -0.000326355 0.00179417 5e-05 0.0827631 -0.0364794 -0.0268211 0 0 -5.1365e-09 
496 1 0.000334356 -0.000326723 0.00169466 5e-05 0.026192 -0.0196372 -0.105141 0 0 -5.1365e-09 
386 1 0.000276226 -0.00026681 0.00175289 5e-05 0.0285892 -0.0414395 -0.0847948 0 0 -5.1365e-09 
215 1 0.000394246 -0.00023685 0.00176626 5e-05 0.0180225 -0.010441 -0.108924 0 0 -5.1365e-09 
258 1 0.000479134 -0.000312415 0.00168637 5e-05 0.0507225 0.0175008 -0.101884 0 0 -5.1365e-09 
93 1 0.000478994 -0.000286605 0.00178908 5e-05 0.0476062 0.0126306 -0.0917999 0 0 -5.1365e-09 
165 1 -0.000481552 -0.000100531 0.00170672 5e-05 -0.0508709 -0.015564 -0.0919275 0 0 -5.1365e-09 
83 1 -0.00045269 -0.000197097 0.00180424 5e-05 -0.038146 0.000451331 -0.071718 0 0 -5.1365e-09 
544 1 -0.000253406 -0.000200826 0.00171781 5e-05 -0.0142748 -0.0347555 -0.036144 -2.994e-07 -2.14016e-07 3.24312e-07 
191 1 -0.000381586 -0.000157238 0.00173831 5e-05 -0.0309886 -0.0258455 -0.116985 0 0 -5.1365e-09 
397 1 -0.000267381 -9.91177e-05 0.00172834 5e-05 -0.0318858 -0.00390747 -0.108601 0 0 -5.1365e-09 
63 1 -0.000259286 -0.000204395 0.00181968 5e-05 -0.0264066 -0.0104994 -0.0406351 0 0 -5.1365e-09 