ITEM: TIMESTEP
12000
ITEM: NUMBER OF ATOMS
571
ITEM: BOX BOUNDS ff ff ff
-0.001 0.001
-0.001 0.001
0 0.004
ITEM: ATOMS id type x y z radius vx vy vz fx fy fz 
209 1 -0.000260569 0.000190801 0.00132698 5e-05 -0.00335807 -0.0207371 -0.1425 0 0 -5.1365e-09 
453 1 -0.000308172 -0.000435794 0.00134062 5e-05 0.00473018 -0.0133294 -0.130671 0 0 -5.1365e-09 
89 1 -0.000302222 -0.000443821 0.00148656 5e-05 0 0 -0.117715 0 0 -5.1365e-09 
401 1 0.000179261 -0.000471412 0.00145931 5e-05 -0.0071054 -0.033861 -0.091083 0 0 -5.1365e-09 
73 1 0.000323562 -0.000428576 0.00136843 5e-05 -0.0124873 -0.00186604 -0.138209 -1.38173e-06 -2.23995e-07 5.03202e-07 
528 1 0.000293844 -0.000448789 0.00146312 5e-05 0.0720349 -0.00718681 -0.108913 0 0 -5.1365e-09 
558 1 0.000404304 -0.000412757 0.00147234 5e-05 0.010256 -0.0103305 -0.109056 0 0 -5.1365e-09 
379 1 -0.000411656 -0.000369931 0.00141795 5e-05 0.0352849 0.0118298 -0.0608823 0 0 -5.1365e-09 
242 1 -0.000292442 -0.00034081 0.00138296 5e-05 0.0508844 -0.00285376 -0.117145 0 0 -5.1365e-09 
489 1 -0.000239924 -0.000330122 0.00151729 5e-05 0.0771277 -0.0630514 -0.0202777 0 0 -5.1365e-09 
551 1 -0.000183777 -0.000356571 0.00134554 5e-05 0.073647 -0.0171856 -0.122897 0 0 -5.1365e-09 
328 1 0.000211332 -0.00038635 0.00137941 5e-05 0.00966212 -0.0210341 -0.118044 0 0 -5.1365e-09 
250 1 0.00018521 -0.000280337 0.00144407 5e-05 0.00147561 -0.0092427 -0.0984711 0 0 -5.1365e-09 
526 1 0.000298931 -0.000279332 0.00135001 5e-05 0.00789704 -0.0100781 -0.130087 0 0 -5.1365e-09 
322 1 0.000318537 -0.000343593 0.00143367 5e-05 -0.00380349 -0.00632583 -0.119854 0 0 -5.1365e-09 
199 1 0.000410837 -0.000380034 0.00136523 5e-05 0.00131155 0.0366234 -0.0971595 1.38173e-06 2.23995e-07 -5.13475e-07 
24 1 0.000474354 -0.00027333 0.00137706 5e-05 0.0339456 -0.0148455 -0.140207 0 0 -5.1365e-09 
251 1 0.000175263 -0.000140434 0.00150255 5e-05 0.01898 -0.0271937 -0.0255041 0 0 -5.1365e-09 
318 1 0.000371702 -0.000193239 0.00133925 5e-05 0.0125187 -0.0145141 -0.125244 0 0 -5.1365e-09 
36 1 0.000269119 -0.000169165 0.00145458 5e-05 -0.00617132 -0.0381642 -0.0925669 0 0 -5.1365e-09 
508 1 0.000356178 -0.000217197 0.00146887 5e-05 0.0338528 -0.0143033 -0.11649 0 0 -5.1365e-09 
490 1 0.000453862 -9.81813e-05 0.00134087 5e-05 0.0148639 0.00499195 -0.121768 0 0 -5.1365e-09 
350 1 0.00041822 -9.78181e-05 0.00145008 5e-05 0.0218156 0.0217495 -0.11867 0 0 -5.1365e-09 
468 1 -0.00044862 4.76923e-05 0.00135788 5e-05 0 0 -0.117715 0 0 -5.1365e-09 
132 1 0.000314384 -8.64772e-05 0.00150387 5e-05 0.0110347 -0.0135574 -0.0686947 0 0 -5.1365e-09 
186 1 0.000438832 -1.56492e-05 0.00139676 5e-05 0.00113673 0.00340028 -0.116349 0 0 -5.1365e-09 
243 1 -0.000449149 0.000154198 0.00139233 5e-05 0 0 -0.117715 0 0 -5.1365e-09 
182 1 -0.000315128 0.000132144 0.0014226 5e-05 -0.00581542 -0.0160421 -0.111616 0 0 -5.1365e-09 
326 1 -0.000359183 0.000217927 0.00148695 5e-05 0 0 -0.117715 0 0 -5.1365e-09 
353 1 -0.000156629 0.000204631 0.00134915 5e-05 0.000644034 -0.000277811 -0.118019 0 0 -5.1365e-09 
235 1 -0.000221306 0.000165493 0.00145843 5e-05 -0.0441348 -0.00893869 -0.101972 0 0 -5.1365e-09 
471 1 -0.000434585 0.000342427 0.00136258 5e-05 0.000119179 0.00428004 -0.0916332 0 0 -5.1365e-09 
509 1 -0.000462916 0.000240399 0.00145378 5e-05 -0.0198851 -0.0064114 -0.103819 0 0 -5.1365e-09 
252 1 -0.000372869 0.000256756 0.0013756 5e-05 0.00791554 -0.0492148 -0.13201 0 0 -5.1365e-09 
308 1 -0.000294019 0.000321696 0.00136888 5e-05 -0.0255928 0.00912012 -0.14365 0 0 -5.1365e-09 
157 1 -0.000258501 0.000378383 0.00146374 5e-05 -0.0618068 -0.00843299 -0.0931634 0 0 -5.1365e-09 
475 1 -0.000160697 0.000266388 0.00145088 5e-05 0.00143709 -0.00057345 -0.0877107 0 0 -5.1365e-09 
529 1 0.000222238 0.000367794 0.00134977 5e-05 -0.00957645 0.00921112 -0.138122 0 0 -5.1365e-09 
90 1 0.000203128 0.000313705 0.00149492 5e-05 0.00370116 0.0357083 -0.0676844 0 0 -5.1365e-09 
57 1 0.000336368 0.000364607 0.00144371 5e-05 -0.0316047 -0.0181839 -0.0952794 0 0 -5.1365e-09 
493 1 0.000428555 0.000365456 0.00140346 5e-05 -0.0295074 -0.0317365 -0.0635203 0 0 -5.1365e-09 
10 1 -0.000406269 0.000399713 0.00148243 5e-05 0.0302433 0.000700183 -0.10025 0 0 -5.1365e-09 
128 1 -0.00035521 0.000438968 0.00139661 5e-05 -0.0314136 -0.000514908 -0.119106 0 0 -5.1365e-09 
425 1 -0.000263779 0.0004749 0.00136705 5e-05 -0.0181186 0.032919 -0.133211 0 0 -5.1365e-09 
384 1 -0.00016 0.000449751 0.00143615 5e-05 -0.0142721 0.0253764 -0.0781097 0 0 -5.1365e-09 
422 1 0.00032685 0.000446983 0.00138394 5e-05 -0.0331744 -0.00503889 -0.0971595 0 0 -5.1365e-09 
473 1 -0.0004039 -0.000418537 0.00151342 5e-05 0.0279607 0.0128937 -0.0766231 0 0 -5.1365e-09 
196 1 -0.000188748 -0.000424971 0.00154259 5e-05 0.0125843 -0.0382167 -0.0644843 0 0 -5.1365e-09 
317 1 -9.38596e-05 -0.000408935 0.00164963 5e-05 0.000682437 -0.0590955 -0.0532781 0 0 -5.1365e-09 
42 1 -0.000204579 -0.000397153 0.00164032 5e-05 0.0725831 -0.0440886 -0.0518418 0 0 -5.1365e-09 
553 1 -6.4422e-05 -0.000527905 0.00156899 5e-05 0.0046629 -0.0518378 -0.0165481 0 0 -5.1365e-09 
107 1 7.10156e-05 -0.000560086 0.00153259 5e-05 0.043782 -0.0968461 -0.0294275 0 0 -5.1365e-09 
188 1 4.45096e-05 -0.000404759 0.00155146 5e-05 0.032544 -0.0305825 0.0838731 0 0 -5.1365e-09 
298 1 -7.95433e-06 -0.000474847 0.00164295 5e-05 0.0157291 -0.0217319 -0.0788639 0 0 -5.1365e-09 
291 1 0.000199195 -0.000496028 0.00157333 5e-05 0.0300562 -0.0492012 -0.0825955 0 0 -5.1365e-09 
545 1 9.6299e-05 -0.000499963 0.0016161 5e-05 0.00117507 -0.0619204 -0.0650491 0 0 -5.1365e-09 
296 1 0.000273135 -0.000472184 0.00166831 5e-05 0.0428818 -0.0531548 -0.0991033 0 0 -5.1365e-09 
402 1 0.00030389 -0.000382756 0.00160334 5e-05 -0.0396224 0.0378396 -0.0839721 0 0 -5.1365e-09 
331 1 0.000435057 -0.000406531 0.00160375 5e-05 -0.00958378 0.0266167 -0.0648219 0 0 -5.1365e-09 
449 1 -0.000508668 -0.000268598 0.00153487 5e-05 -0.0661883 -0.0341215 -0.051681 0 0 -5.1365e-09 
227 1 -0.000402003 -0.000313395 0.00155172 5e-05 0.00513952 -0.000415113 0.0641391 0 0 -5.1365e-09 
113 1 -0.0004317 -0.00038032 0.0016214 5e-05 -0.0172508 -0.0298997 -0.0353864 0 0 -5.1365e-09 
29 1 -0.000362065 -0.000264329 0.00163698 5e-05 -0.00981175 -0.0350693 0.0259256 0 0 -5.1365e-09 
99 1 -0.000254448 -0.000242858 0.00164441 5e-05 0.00604304 0.000423241 0.0473807 0 0 -5.1365e-09 
335 1 -0.000321502 -0.000352479 0.00160718 5e-05 -0.0520022 0.0119231 -0.0144426 0 0 -5.1365e-09 
538 1 -0.000112868 -0.000359434 0.00155 5e-05 0.00444575 -0.00707907 -0.0141399 0 0 -5.1365e-09 
305 1 -0.000162646 -0.000269041 0.00154242 5e-05 0.0200759 -0.0560321 0.0334916 -9.94634e-08 7.70427e-07 -1.2373e-06 
549 1 -0.000152711 -0.000309005 0.00163349 5e-05 -0.0234219 0.011209 -0.0556482 9.94634e-08 -7.70427e-07 1.22703e-06 
22 1 7.22225e-05 -0.000251591 0.00162972 5e-05 0.000420843 0.00841401 0.041055 0 0 -5.1365e-09 
382 1 -7.59365e-06 -0.000317969 0.00159575 5e-05 -0.00508048 -0.0241339 -0.039987 0 0 -5.1365e-09 
536 1 3.89766e-05 -0.000386187 0.00165827 5e-05 -0.02931 -0.0394864 -0.0248066 0 0 -5.1365e-09 
70 1 0.000105547 -0.000309957 0.00155505 5e-05 0.0437168 -0.0122653 0.0202962 0 0 -5.1365e-09 
156 1 0.00014695 -0.000391813 0.00160176 5e-05 0.0508066 -0.0239184 -0.0636168 -1.04932e-06 1.22832e-06 -2.03155e-06 
541 1 0.00020103 -0.000252673 0.00162055 5e-05 0.0282981 -0.0172231 -0.109807 0 0 -5.1365e-09 
23 1 0.000244402 -0.000340648 0.00152197 5e-05 0 0 -0.117715 0 0 -5.1365e-09 
381 1 0.000309138 -0.000280645 0.00161259 5e-05 0.0123057 -0.0157023 -0.110968 0 0 -5.1365e-09 
222 1 0.000435144 -0.000307334 0.00151996 5e-05 0.00650741 -0.0277667 -0.13636 0 0 -5.1365e-09 
168 1 -0.000476412 -0.000147014 0.00158394 5e-05 -0.0814779 -0.0202586 -0.0590266 0 0 -5.1365e-09 
342 1 -0.000373546 -0.000176894 0.00155155 5e-05 -0.047434 -0.0520777 -0.0355255 0 0 -5.1365e-09 
43 1 -0.000249081 -0.000179938 0.00155255 5e-05 0.00873717 0.0206579 0.00280186 0 0 -5.1365e-09 
281 1 -0.000317792 -0.000153183 0.00163247 5e-05 -0.0142419 -0.0077591 0.00524136 0 0 -5.1365e-09 
80 1 -0.00017164 -8.53607e-05 0.00155092 5e-05 0.0128582 0.00588767 -0.00836541 0 0 -5.1365e-09 
81 1 -0.000156377 -0.000180809 0.00159587 5e-05 0.00685864 -0.0340795 -0.0284843 0 0 -5.1365e-09 
343 1 -0.000224563 -0.000135794 0.00167919 5e-05 -0.0205391 -0.0143026 -0.0371398 0 0 -5.1365e-09 
555 1 -7.63114e-05 -0.000117108 0.00158248 5e-05 -0.00808062 -0.00474623 -0.0761241 0 0 -5.1365e-09 
131 1 -8.66902e-06 -0.000224475 0.00155121 5e-05 0.0516136 -0.0121561 0.00149145 0 0 -5.1365e-09 
405 1 1.63074e-05 -9.60874e-05 0.00155016 5e-05 0.0161934 -0.00552814 0.0109903 0 0 -5.1365e-09 
427 1 -5.79194e-05 -0.000235283 0.00164147 5e-05 0.0255155 -0.0630023 -0.041016 0 0 -5.1365e-09 
376 1 2.31017e-05 -0.000162954 0.00163372 5e-05 0.0158709 0.0247665 -0.0131649 0 0 -5.1365e-09 
124 1 -2.11828e-05 -7.65479e-05 0.00166723 5e-05 -0.0033404 0.0230731 -0.0455819 0 0 -5.1365e-09 
414 1 8.39034e-05 -0.000179527 0.00155462 5e-05 0.0170751 0.0445523 -0.0113245 0 0 -5.1365e-09 
25 1 0.00018354 -0.000142268 0.00161027 5e-05 -0.00327479 -0.0277264 -0.0740491 8.89982e-07 -1.65441e-06 -2.93059e-06 
293 1 0.000107558 -0.00016482 0.00168992 5e-05 0.0311592 -0.00499961 0.00175636 0 0 -5.1365e-09 
299 1 0.000263468 -0.000232623 0.00153172 5e-05 0.00736513 -0.0298411 -0.111578 0 0 -5.1365e-09 
86 1 0.000333793 -0.000149222 0.00158156 5e-05 0.00692986 -0.0144794 -0.118612 0 0 -5.1365e-09 
37 1 0.000428153 -0.00019921 0.00155301 5e-05 0.0233391 -0.0145322 -0.120183 0 0 -5.1365e-09 
50 1 0.00042869 -0.000103284 0.001585 5e-05 0.0333878 0.0274938 -0.0806783 0 0 -5.1365e-09 
239 1 -0.000404311 -3.18977e-05 0.00153294 5e-05 -0.0198965 0.0213925 -0.0359539 0 0 -5.1365e-09 
26 1 -0.000470918 7.84508e-05 0.00159721 5e-05 -0.0374946 0.0664022 -0.0342519 0 0 -5.1365e-09 
387 1 -0.00046287 -1.61612e-05 0.00165531 5e-05 -0.0275032 0.0408812 -0.0476749 -1.33715e-06 -3.81246e-07 -1.02065e-06 
285 1 -0.000355724 5.83656e-05 0.00152322 5e-05 -0.0163384 0.0200466 -0.128747 0 0 -5.1365e-09 
92 1 -0.000276149 -7.88348e-05 0.00155156 5e-05 -0.0213348 -0.0357116 -0.0325898 0 0 -5.1365e-09 
30 1 -0.000305637 -3.71234e-05 0.00163984 5e-05 0.00268087 0.00174721 -0.00746114 0 0 -5.1365e-09 
40 1 -0.000105719 -7.40237e-06 0.00155214 5e-05 0.0123191 0.0133996 0.00288378 0 0 -5.1365e-09 
564 1 -0.000161477 5.68607e-05 0.00161678 5e-05 -0.0332449 0.0256202 -0.028236 0 0 -5.1365e-09 
455 1 -0.000196762 -4.12526e-05 0.00164168 5e-05 -0.0304576 0.0186704 -0.0034646 0 0 -5.1365e-09 
359 1 -8.36452e-05 6.69255e-06 0.00165652 5e-05 -0.00532106 0.0138148 -0.0844895 0 0 -5.1365e-09 
446 1 1.97511e-05 1.22828e-05 0.00155087 5e-05 0.0293262 -0.0154431 0.000576068 0 0 -5.1365e-09 
169 1 1.17626e-05 5.98302e-05 0.00164089 5e-05 0.0113421 0.015794 -0.0569843 0 0 -5.1365e-09 
98 1 7.79634e-05 -6.1547e-05 0.00162371 5e-05 0.0583539 0.00976023 -0.02571 0 0 -5.1365e-09 
91 1 0.000171932 -5.03056e-05 0.00155805 5e-05 0.055875 -0.0333086 0.00749221 0 0 -5.1365e-09 
256 1 0.000220782 4.29352e-05 0.00155747 5e-05 0.0185101 0.0290978 -0.0571827 0 0 -5.1365e-09 
158 1 0.000130186 3.20025e-05 0.00159915 5e-05 -0.0223429 -0.0183864 -0.0301813 0 0 -5.1365e-09 
287 1 0.000282975 3.89966e-05 0.00163571 5e-05 0.0218655 -0.0489553 0.0114506 0 0 -5.1365e-09 
459 1 0.000266242 -5.86299e-05 0.00161317 5e-05 0.00559782 0.0203868 -0.0929763 0 0 -5.1365e-09 
441 1 0.000381842 -1.2008e-05 0.00158779 5e-05 0.029741 -0.035922 -0.0453897 0 0 -5.1365e-09 
367 1 -0.000431736 0.000124928 0.00149473 5e-05 -0.0182034 -0.0156186 -0.138274 0 0 -5.1365e-09 
463 1 -0.00045719 0.000211784 0.00157222 5e-05 -0.034121 0.00127248 -0.0855529 0 0 -5.1365e-09 
321 1 -0.000265292 8.85111e-05 0.00161622 5e-05 -0.0467358 -0.00294954 -0.104077 0 0 -5.1365e-09 
485 1 -0.000263817 0.000232624 0.00153053 5e-05 -0.0344102 0.0244161 -0.133489 0 0 -5.1365e-09 
49 1 -0.00038288 0.000124742 0.00162828 5e-05 -0.0614867 0.0413815 -0.099563 0 0 -5.1365e-09 
311 1 -0.000318188 0.000222041 0.00164145 5e-05 0 0 -0.117715 0 0 -5.1365e-09 
153 1 -0.00020712 7.99943e-05 0.0015219 5e-05 0.00939168 -0.0222445 -0.0791692 0 0 -5.1365e-09 
472 1 -8.62508e-05 9.42564e-05 0.00156105 5e-05 0.0231443 -0.00765337 0.0219913 0 0 -5.1365e-09 
213 1 -0.000212085 0.000175096 0.00162115 5e-05 -0.0443145 0.000614088 -0.089711 0 0 -5.1365e-09 
364 1 -0.000114294 0.000152149 0.00164758 5e-05 -0.0355628 0.0479044 0.0198181 0 0 -5.1365e-09 
192 1 -6.63492e-06 0.000158983 0.00155205 5e-05 -0.00925507 0.00638279 -0.0693072 0 0 -5.1365e-09 
499 1 8.26e-05 0.000196248 0.001631 5e-05 0.0129421 0.00533049 0.00711294 0 0 -5.1365e-09 
280 1 -2.54867e-05 0.000199948 0.00164687 5e-05 -0.0225146 0.0331665 -0.0659919 0 0 -5.1365e-09 
406 1 9.26613e-05 0.000118136 0.00155434 5e-05 0.0372529 0.02948 -0.0504842 0 0 -5.1365e-09 
521 1 0.000147871 0.000209944 0.00155246 5e-05 0.00278897 0.0214007 0.0107666 0 0 -5.1365e-09 
161 1 0.000184654 0.000128793 0.00159847 5e-05 -0.00563614 -0.00412025 -0.0173946 0 0 -5.1365e-09 
66 1 0.000170957 0.000190802 0.00169064 5e-05 0.0115227 0.0187617 -0.00181309 0 0 -5.1365e-09 
134 1 0.000258708 0.000215889 0.00155308 5e-05 0.00746783 -0.019919 -0.0549391 0 0 -5.1365e-09 
497 1 0.000340354 8.10002e-05 0.00156473 5e-05 0.0266626 0.0474582 -0.00963594 0 0 -5.1365e-09 
413 1 0.000359325 0.000182156 0.00155952 5e-05 0.0253898 -0.00494001 0.0132037 0 0 -5.1365e-09 
225 1 0.000286079 0.000148909 0.00163929 5e-05 0.0412614 0.0250501 -0.0104109 0 0 -5.1365e-09 
84 1 0.000479696 8.93542e-05 0.00154987 5e-05 0.0553711 -0.00815469 0.0042054 0 0 -5.1365e-09 
11 1 0.000406383 0.000111769 0.00164362 5e-05 0.0114365 0.0430963 -0.0146814 0 0 -5.1365e-09 
282 1 0.000426516 0.000226456 0.00162312 5e-05 0.0396558 0.017422 -0.0484726 0 0 -5.1365e-09 
482 1 -0.000431237 0.000311621 0.00152383 5e-05 0.0227619 -0.00289593 -0.11941 0 0 -5.1365e-09 
123 1 -0.000418056 0.00028766 0.00162664 5e-05 -0.0309188 -0.0157028 -0.104706 0 0 -5.1365e-09 
183 1 -0.000328194 0.000303969 0.00156625 5e-05 0.00451411 -0.0158331 -0.112841 0 0 -5.1365e-09 
202 1 -8.38888e-05 0.000251327 0.00156143 5e-05 0.0267695 -0.0334014 -0.0678974 0 0 -5.1365e-09 
115 1 -0.00022076 0.000333097 0.00155496 5e-05 -0.0384171 0.0072009 -0.112728 0 0 -5.1365e-09 
33 1 -0.000106938 0.000318207 0.00164139 5e-05 -0.0300773 0.0283784 -0.0898712 0 0 -5.1365e-09 
435 1 -1.85372e-05 0.000372586 0.00155298 5e-05 -0.0437017 0.0202618 0.00179854 0 0 -5.1365e-09 
273 1 3.53192e-05 0.000255504 0.00155277 5e-05 0.0194385 0.0101901 -0.0182951 0 0 -5.1365e-09 
394 1 -6.36917e-06 0.000310621 0.00163903 5e-05 -0.0183414 0.00570952 0.00719515 0 0 -5.1365e-09 
174 1 8.17212e-05 0.000380638 0.00155386 5e-05 -0.0168681 0.0502149 -0.0163498 0 0 -5.1365e-09 
498 1 0.000196717 0.000276512 0.0016222 5e-05 -0.012636 0.00888094 -0.0253844 0 0 -5.1365e-09 
181 1 9.87499e-05 0.000303875 0.00161801 5e-05 -0.0149491 -0.00380316 -0.0541264 0 0 -5.1365e-09 
450 1 0.000324817 0.000308122 0.00157259 5e-05 -0.0495824 0.0198732 -0.0954832 0 0 -5.1365e-09 
72 1 0.000297181 0.000262014 0.00165844 5e-05 0.0021293 -0.0142221 -0.0346981 0 0 -5.1365e-09 
290 1 0.000422777 0.000296213 0.00155092 5e-05 0.00622558 -0.0172762 0.0277602 0 0 -5.1365e-09 
74 1 0.000510186 0.000335186 0.00159727 5e-05 0.0714073 0.00862575 -0.0398387 0 0 -5.1365e-09 
393 1 -0.000427611 0.000437372 0.00162023 5e-05 0.0486067 -0.038655 -0.0560673 0 0 -5.1365e-09 
537 1 -0.000350781 0.00047822 0.00153195 5e-05 -0.0327951 0.0418159 -0.119074 0 0 -5.1365e-09 
108 1 -0.000263341 0.000429564 0.00158039 5e-05 0.0129626 0.0263468 -0.089523 0 0 -5.1365e-09 
389 1 -0.000324904 0.000467629 0.00165725 5e-05 0.00188319 0.0373949 -0.051531 0 0 -5.1365e-09 
560 1 -0.000162009 0.000492394 0.00154865 5e-05 -0.0172088 0.0477364 -0.104381 0 0 -5.1365e-09 
540 1 -0.000197308 0.000478011 0.00164186 5e-05 -0.0261463 0.0380569 -0.10992 0 0 -5.1365e-09 
548 1 5.64049e-05 0.000499571 0.00155261 5e-05 -0.0209483 0.0341756 0.01855 0 0 -5.1365e-09 
173 1 -2.34142e-05 0.000479409 0.00161317 5e-05 -0.0216641 0.0441956 -0.00970577 0 0 -5.1365e-09 
60 1 0.000197665 0.000551425 0.00152874 5e-05 0.0170102 0.0665816 -0.0730313 0 0 -5.1365e-09 
358 1 0.00018112 0.00040872 0.00158771 5e-05 0.0189168 0.0428178 -0.0589839 0 0 -5.1365e-09 
502 1 0.000137941 0.000507124 0.001611 5e-05 -0.00229534 0.080403 -0.0619265 0 0 -5.1365e-09 
476 1 0.000294157 0.000522467 0.00163457 5e-05 -0.0669784 -0.0266373 0.0135162 0 0 -5.1365e-09 
228 1 0.000287833 0.000420868 0.00158801 5e-05 0.0338848 0.0470468 -0.089989 0 0 -5.1365e-09 
391 1 0.000408793 0.000424041 0.00161625 5e-05 -0.00579855 0.0511057 0.0689525 0 0 -5.1365e-09 
218 1 0.000440837 0.000407393 0.00152174 5e-05 -0.0177357 0.058067 0.0466476 2.34208e-07 1.07048e-06 1.33086e-06 
67 1 -0.000429903 -0.000460013 0.00172846 5e-05 -0.0588247 -0.0301413 -0.0813703 0 0 -5.1365e-09 
9 1 -0.000305278 -0.000442088 0.00168061 5e-05 0.00448561 -0.00633944 -0.108695 0 0 -5.1365e-09 
283 1 -0.000329053 -0.000387518 0.00178275 5e-05 0 0 -0.117715 0 0 -5.1365e-09 
207 1 -0.00015239 -0.00046749 0.0017081 5e-05 -0.0125033 -0.0566132 -0.0465911 0 0 -5.1365e-09 
375 1 -0.000124787 -0.000396951 0.00182119 5e-05 0.0131822 -0.00727541 -0.104508 0 0 -5.1365e-09 
569 1 -5.45975e-05 -0.000433116 0.00175215 5e-05 -0.0124961 -0.0520429 -0.0228284 0 0 -5.1365e-09 
373 1 4.91056e-05 -0.000416839 0.00176211 5e-05 0.0128161 -0.0563416 -0.0874498 0 0 -5.1365e-09 
118 1 0.000171914 -0.000439412 0.00168592 5e-05 0.0779692 -0.0472549 -0.0834234 1.04932e-06 -1.22832e-06 2.02128e-06 
513 1 0.000149576 -0.000456826 0.00179109 5e-05 0.0514353 -0.0333422 -0.0714751 0 0 -5.1365e-09 
316 1 0.000323927 -0.000435195 0.00175594 5e-05 0.0463924 -0.015314 -0.0339484 0 0 -5.1365e-09 
159 1 0.000423443 -0.000425345 0.00174877 5e-05 0.0544007 -0.0195516 -0.056999 0 0 -5.1365e-09 
51 1 -0.000449154 -0.000251138 0.00176512 5e-05 -0.00852756 -0.0437445 -0.0542824 0 0 -5.1365e-09 
514 1 -0.000464699 -0.000361539 0.00175933 5e-05 -0.0374738 -0.00600242 -0.110886 0 0 -5.1365e-09 
523 1 -0.000252145 -0.000331476 0.00169997 5e-05 0.0202797 -0.0161183 -0.0995969 0 0 -5.1365e-09 
68 1 -0.000373633 -0.00033717 0.00170668 5e-05 -0.0341755 -0.00816304 -0.102541 0 0 -5.1365e-09 
284 1 -0.000227564 -0.000366183 0.00179582 5e-05 -0.0121097 -0.0126896 -0.0557946 6.84982e-07 2.95901e-07 -3.76498e-07 
4 1 -0.000155877 -0.000325928 0.00173742 5e-05 0.0122404 -0.0234741 -0.085446 0 0 -5.1365e-09 
167 1 -0.000232691 -0.00023845 0.00175396 5e-05 -0.0272633 -0.0145482 -0.0771291 0 0 -5.1365e-09 
313 1 -0.000130422 -0.00024484 0.00179326 5e-05 0.00212303 0.0356729 -0.0596986 0 0 -5.1365e-09 
3 1 -3.23275e-05 -0.000321473 0.00169596 5e-05 0.00192287 -0.0212838 -0.024126 0 0 -5.1365e-09 
554 1 1.9098e-05 -0.000232761 0.00171251 5e-05 -0.0219655 -0.0157064 -0.0705337 0 0 -5.1365e-09 
203 1 4.19222e-05 -0.000315937 0.00177042 5e-05 -0.00195243 -0.0177334 -0.0715822 0 0 -5.1365e-09 
236 1 0.00011918 -0.0003256 0.00167971 5e-05 0.016977 -0.0358174 -0.0532774 0 0 -5.1365e-09 
141 1 0.000221517 -0.000337093 0.00167199 5e-05 0.0303412 -0.0207035 -0.111098 0 0 -5.1365e-09 
511 1 0.000142747 -0.000346558 0.00177489 5e-05 0.0256542 -0.0403309 -0.0394635 0 0 -5.1365e-09 
114 1 0.000223189 -0.000269797 0.0018019 5e-05 0.00126683 -0.0383581 -0.0818771 0 0 -5.1365e-09 
434 1 0.000350414 -0.000326022 0.00170139 5e-05 0.0320902 0.0189756 -0.114076 0 0 -5.1365e-09 
35 1 0.000399113 -0.00032451 0.00178993 5e-05 0.0272335 0.0147346 -0.0943504 0 0 -5.1365e-09 
13 1 0.000426348 -0.000263866 0.00164786 5e-05 0.0212985 -0.0254658 -0.13215 0 0 -5.1365e-09 
337 1 -0.000510496 -0.000214032 0.00167798 5e-05 -0.0771382 0.00132558 -0.054862 0 0 -5.1365e-09 
355 1 -0.000476677 -0.000128139 0.00176152 5e-05 -0.0509764 0.0199379 -0.0608482 0 0 -5.1365e-09 
429 1 -0.000405811 -0.000141201 0.00169198 5e-05 -0.0662017 -0.00042975 -0.0284878 0 0 -5.1365e-09 
400 1 -0.000325887 -0.000209589 0.0017169 5e-05 -0.0446104 -0.0148699 0.0074456 0 0 -5.1365e-09 
160 1 -0.000359147 -9.43496e-05 0.0017735 5e-05 -0.0473075 -0.00391028 -0.0570374 0 0 -5.1365e-09 
534 1 -0.000153871 -0.000218326 0.00169483 5e-05 -0.0239366 -0.0183346 -0.0151383 0 0 -5.1365e-09 
309 1 -0.000118239 -0.00011477 0.00167399 5e-05 -0.00643162 -0.0198578 -0.0584387 0 0 -5.1365e-09 
271 1 -0.000162532 -0.0001423 0.0017609 5e-05 0.0258904 -0.0110436 -0.0582448 0 0 -5.1365e-09 
246 1 -8.03727e-05 -0.000128379 0.00181742 5e-05 0.0120898 -0.026175 -0.0479252 -7.50743e-07 -8.09859e-07 -1.26379e-07 
20 1 2.90155e-05 -0.000136898 0.00174526 5e-05 0.00987248 -0.00660595 -0.0198632 0 0 -5.1365e-09 
104 1 -6.70708e-05 -0.000182708 0.00173045 5e-05 0.017153 0.0145992 -0.0156053 0 0 -5.1365e-09 
279 1 4.31352e-05 -0.000214379 0.00181141 5e-05 0.0259293 0.00756189 -0.00745358 0 0 -5.1365e-09 
170 1 0.000199563 -0.000111578 0.0017039 5e-05 0.000564506 -0.0111733 -0.0864245 -8.89982e-07 1.65441e-06 2.92032e-06 
77 1 0.000110054 -8.50391e-05 0.00177415 5e-05 0.0269868 -0.00204208 -0.0593185 0 0 -5.1365e-09 
78 1 0.000261565 -0.000212197 0.00172101 5e-05 0.0330088 -0.011325 -0.107939 0 0 -5.1365e-09 
121 1 0.000365239 -0.000207553 0.00170875 5e-05 0.0143138 -0.0230309 -0.0826306 0 0 -5.1365e-09 
330 1 0.000268477 -0.00011158 0.00179656 5e-05 0.0232464 0.0125704 -0.0286768 0 0 -5.1365e-09 
17 1 0.000306539 -0.000118009 0.0016903 5e-05 0.0189819 -0.0375761 -0.0783464 0 0 -5.1365e-09 
136 1 0.000414033 -0.000102564 0.00168686 5e-05 0.0348117 -0.066727 -0.0937973 0 0 -5.1365e-09 
447 1 0.000442486 -0.000132684 0.00177922 5e-05 0 0 -0.117715 0 0 -5.1365e-09 
45 1 -0.000423811 -1.62907e-05 0.00180492 5e-05 -0.024525 0.0154673 -0.0944206 0 0 -5.1365e-09 
363 1 -0.000378137 -1.78738e-05 0.00170823 5e-05 -0.0385103 0.02903 -0.0910928 1.33715e-06 3.81246e-07 1.01037e-06 
75 1 -0.000384759 7.0559e-05 0.00175824 5e-05 -0.0693578 0.0271807 -0.0305909 0 0 -5.1365e-09 
142 1 -0.000185483 4.59342e-05 0.00172237 5e-05 -0.00139405 0.0515849 0.0340447 0 0 -5.1365e-09 
204 1 -0.000231813 -5.97704e-06 0.0017968 5e-05 -0.00856369 0.0153118 -0.0250328 0 0 -5.1365e-09 
484 1 -0.000104812 -3.80721e-05 0.00174574 5e-05 -0.0192469 -0.00494695 -0.0796879 0 0 -5.1365e-09 
32 1 -0.000100769 7.00544e-05 0.0018079 5e-05 0.00741912 0.00773094 -0.0906175 0 0 -5.1365e-09 
559 1 2.95517e-05 -4.82156e-06 0.0017191 5e-05 0.0200746 0.00737509 -0.0912857 0 0 -5.1365e-09 
54 1 1.6443e-05 6.68197e-05 0.00178784 5e-05 0.00376082 -0.00253146 -0.0537702 0 0 -5.1365e-09 
440 1 -1.32593e-05 -5.68535e-05 0.00179826 5e-05 0.0278653 -0.0193482 -0.0198984 7.50743e-07 8.09859e-07 1.16106e-07 
261 1 0.000248436 -2.3178e-05 0.00170782 5e-05 0.0136747 -0.0140069 -0.0764032 0 0 -5.1365e-09 
454 1 0.00014443 -2.58016e-05 0.00169362 5e-05 0.0745464 0.0278787 -0.0275642 0 0 -5.1365e-09 
524 1 0.000122026 7.71233e-05 0.00168822 5e-05 -0.0205327 -0.00389608 -0.0718455 0 0 -5.1365e-09 
64 1 0.000117419 4.98474e-05 0.00179652 5e-05 0.0125287 0.0357668 -0.0644463 0 0 -5.1365e-09 
504 1 0.000205707 -2.29163e-05 0.00180785 5e-05 -0.00834518 0.00292144 -0.0501386 0 0 -5.1365e-09 
457 1 0.000350391 -3.10033e-05 0.00173238 5e-05 0.059163 -0.0735507 -0.063286 0 0 -5.1365e-09 
266 1 0.000448532 5.60329e-06 0.00168511 5e-05 0.0428252 -0.0221988 -0.0650301 0 0 -5.1365e-09 
208 1 0.000470042 7.41336e-05 0.00176393 5e-05 0.0850209 -0.0191799 -0.0912613 0 0 -5.1365e-09 
438 1 -0.000498922 0.000120342 0.00170468 5e-05 -0.106729 0.0204058 -0.0601086 0 0 -5.1365e-09 
351 1 -0.000449831 0.000169909 0.0017918 5e-05 -0.0243392 0.00457421 -0.10331 0 0 -5.1365e-09 
383 1 -0.000307458 0.000130268 0.00169975 5e-05 -0.026291 0.0156668 -0.0316304 0 0 -5.1365e-09 
324 1 -0.000265145 0.000157659 0.00179845 5e-05 -0.0142649 0.0490961 -0.074225 0 0 -5.1365e-09 
421 1 -0.000362929 0.000199782 0.00174988 5e-05 0.000328248 0.0180443 -0.101318 0 0 -5.1365e-09 
347 1 -0.000165807 0.000170085 0.00175682 5e-05 -0.0245884 -0.0096518 -0.109014 0 0 -5.1365e-09 
428 1 -6.65158e-05 9.20177e-05 0.00171446 5e-05 0.0148588 0.0273111 -0.0968374 0 0 -5.1365e-09 
163 1 4.92658e-05 0.000223182 0.00176313 5e-05 -0.0231712 0.0264514 -0.0400357 0 0 -5.1365e-09 
259 1 3.18934e-05 0.000133572 0.00170837 5e-05 0.0103311 0.0501358 -0.0586934 0 0 -5.1365e-09 
481 1 -6.98894e-05 0.000196465 0.00173844 5e-05 -0.0322739 0.00471163 -0.0606647 0 0 -5.1365e-09 
82 1 0.000205919 9.68275e-05 0.00174397 5e-05 0.0153051 -0.00398508 -0.0722662 0 0 -5.1365e-09 
570 1 0.000117233 0.000145264 0.00176368 5e-05 -0.0216456 -0.00190906 -0.101041 0 0 -5.1365e-09 
346 1 0.000332338 9.48744e-05 0.00171016 5e-05 0.0443443 0.0162695 -0.0180017 0 0 -5.1365e-09 
371 1 0.000269864 0.000184726 0.00174647 5e-05 0.0197541 0.0201092 -0.0906151 0 0 -5.1365e-09 
135 1 0.000378542 0.000156457 0.00178307 5e-05 0.048443 0.0234695 -0.0765936 0 0 -5.1365e-09 
175 1 0.000449338 0.00018626 0.00171608 5e-05 0.0408012 -0.00749137 0.0361267 0 0 -5.1365e-09 
226 1 -0.000426651 0.000284821 0.0017865 5e-05 0 0 -0.117715 0 0 -5.1365e-09 
61 1 -0.000346856 0.00032977 0.00170811 5e-05 -0.0457222 -0.0199643 -0.103494 0 0 -5.1365e-09 
126 1 -0.000253897 0.000260567 0.00173405 5e-05 -0.0550082 -0.00241731 -0.0789277 0 0 -5.1365e-09 
388 1 -0.000240974 0.000363297 0.00168272 5e-05 -0.0349893 -0.0133731 -0.095074 0 0 -5.1365e-09 
507 1 -0.000164534 0.000243799 0.00167649 5e-05 -0.0424859 0.0130521 -0.0931121 0 0 -5.1365e-09 
87 1 -0.000145966 0.000363223 0.00172454 5e-05 -0.0475012 0.0384528 -0.084495 0 0 -5.1365e-09 
116 1 -0.000201141 0.000369677 0.00181118 5e-05 -0.0155958 0.0130442 -0.0882899 0 0 -5.1365e-09 
117 1 -9.66632e-05 0.000262311 0.00182701 5e-05 0.00609511 0.0267443 -0.0642735 0 0 -5.1365e-09 
535 1 6.33994e-05 0.000313362 0.00171785 5e-05 0.0239862 0.0341138 -0.0108634 0 0 -5.1365e-09 
565 1 -3.60267e-05 0.000292144 0.0017404 5e-05 -0.0140015 0.0162017 -0.0712786 0 0 -5.1365e-09 
300 1 0.000172152 0.000260953 0.00178976 5e-05 0.0135578 0.0273241 -0.0724863 0 0 -5.1365e-09 
140 1 0.000163794 0.000361064 0.0016835 5e-05 0.0317991 0.0667846 -0.0766464 0 0 -5.1365e-09 
106 1 0.000203705 0.000378735 0.00180871 5e-05 -0.0493731 0.0180713 -0.0618004 0 0 -5.1365e-09 
444 1 0.000363407 0.000257015 0.00173591 5e-05 -0.00776206 -0.0094778 -0.0649325 0 0 -5.1365e-09 
71 1 0.000341366 0.00035847 0.00174669 5e-05 -0.00822625 0.0376101 -0.0759796 0 0 -5.1365e-09 
566 1 0.000259542 0.000292325 0.00175199 5e-05 -0.0271474 0.0109253 -0.0882984 0 0 -5.1365e-09 
244 1 0.00047833 0.000340817 0.00169728 5e-05 -0.00662033 0.00280592 -0.00111019 0 0 -5.1365e-09 
44 1 0.000458442 0.000258104 0.0017959 5e-05 0.0180623 -0.00484725 -0.058059 0 0 -5.1365e-09 
419 1 0.000436548 0.00037233 0.00179683 5e-05 -0.0142881 0.0125788 -0.0571125 0 0 -5.1365e-09 
320 1 -0.00040991 0.000407003 0.00171688 5e-05 -0.000455378 -0.0229594 -0.0752532 0 0 -5.1365e-09 
223 1 -0.000100763 0.000451569 0.00168263 5e-05 -0.0500563 0.0247702 -0.0386904 0 0 -5.1365e-09 
505 1 -0.00021947 0.000457231 0.00174372 5e-05 -0.0145468 0.0070093 -0.0608876 0 0 -5.1365e-09 
403 1 -0.00012625 0.000457794 0.00181555 5e-05 -0.0358136 0.041996 -0.0385614 0 0 -5.1365e-09 
88 1 3.87012e-05 0.00042151 0.00167648 5e-05 0.014418 -0.0212547 -0.0540147 0 0 -5.1365e-09 
133 1 7.10245e-05 0.000408112 0.00177263 5e-05 0.0199318 0.0432742 -0.0350851 0 0 -5.1365e-09 
486 1 -2.96695e-05 0.000436858 0.00176241 5e-05 -0.0107726 0.0132143 -0.0545871 0 0 -5.1365e-09 
494 1 0.000183926 0.000459861 0.00168945 5e-05 0.0248714 0.0328605 -0.0616586 0 0 -5.1365e-09 
240 1 0.000148401 0.00048541 0.00180156 5e-05 -0.00332313 0.0380024 -0.0308903 0 0 -5.1365e-09 
7 1 0.00030358 0.000455403 0.00174018 5e-05 0.0728115 0.0179154 -0.0439717 0 0 -5.1365e-09 
265 1 0.000399773 0.000467409 0.0017104 5e-05 0.0704151 0.0314685 -0.111152 0 0 -5.1365e-09 
516 1 -0.000437486 -0.000463799 0.0018301 5e-05 0.000988107 -0.0315427 -0.0958541 0 0 -5.1365e-09 
85 1 -0.000279433 -0.000398845 0.00187478 5e-05 -0.0296361 -0.0189995 -0.0621552 -6.84982e-07 -2.95901e-07 3.66225e-07 
416 1 -0.000372079 -0.000466382 0.00190761 5e-05 0.00125291 -0.0246234 -0.109615 0 0 -5.1365e-09 
556 1 -0.000208909 -0.000475313 0.00184745 5e-05 -0.0307664 -0.0626877 -0.0569789 0 0 -5.1365e-09 
200 1 -0.000105235 -0.000409422 0.00192388 5e-05 0.0290997 -0.0358499 -0.0248092 0 0 -5.1365e-09 
14 1 2.11448e-05 -0.00040398 0.00187111 5e-05 0.00867759 -0.023434 -0.097401 0 0 -5.1365e-09 
341 1 6.1825e-05 -0.000426265 0.00196166 5e-05 0.000291672 -0.0140685 -0.103463 0 0 -5.1365e-09 
398 1 0.000136566 -0.000433149 0.00188885 5e-05 0.00476647 -0.00470159 -0.0520786 0 0 -5.1365e-09 
255 1 0.000290094 -0.000449138 0.00186193 5e-05 0.00848386 -0.00960031 -0.110436 0 0 -5.1365e-09 
166 1 0.000409387 -0.000410466 0.00184765 5e-05 0.00179536 -0.000128034 -0.116241 0 0 -5.1365e-09 
518 1 0.000455119 -0.000433591 0.0019527 5e-05 0.0130981 -0.0198806 -0.0830108 0 0 -5.1365e-09 
237 1 -0.000416319 -0.00036739 0.00185683 5e-05 0.00027707 -0.00909216 -0.138852 0 0 -5.1365e-09 
430 1 -0.0004459 -0.000247986 0.00189155 5e-05 0 0 -0.117715 0 0 -5.1365e-09 
295 1 -0.000363794 -0.000245675 0.00182436 5e-05 0.00273766 -0.0135619 -0.103355 0 0 -5.1365e-09 
368 1 -0.000272095 -0.000277363 0.00186908 5e-05 -0.0523751 -5.85516e-05 -0.0473154 0 0 -5.1365e-09 
306 1 -0.000134855 -0.000245653 0.00189715 5e-05 -0.0364741 0.0168072 -0.0959085 0 0 -5.1365e-09 
377 1 -0.000189863 -0.000337016 0.00190275 5e-05 -0.010601 -0.00405098 -0.0897468 0 0 -5.1365e-09 
41 1 -4.48421e-05 -0.000282843 0.0018552 5e-05 -0.00335769 -0.0151755 -0.106659 0 0 -5.1365e-09 
478 1 3.46982e-05 -0.000323383 0.00193208 5e-05 -0.00249459 0.0137119 -0.0936058 0 0 -5.1365e-09 
102 1 0.000219506 -0.000366182 0.00184872 5e-05 0.00248927 -0.0312685 -0.0683799 0 0 -5.1365e-09 
361 1 0.000126696 -0.000287587 0.0018646 5e-05 -0.00464151 0.0114363 -0.0683561 0 0 -5.1365e-09 
144 1 0.000163317 -0.000335683 0.00195712 5e-05 0.00878017 0.0149411 -0.0834582 0 0 -5.1365e-09 
274 1 0.000377141 -0.000227914 0.00184227 5e-05 0.0114987 0.0239832 -0.0919055 0 0 -5.1365e-09 