ITEM: TIMESTEP
24000
ITEM: NUMBER OF ATOMS
538
ITEM: BOX BOUNDS ff ff ff
-0.001 0.001
-0.001 0.001
0 0.004
ITEM: ATOMS id type x y z radius vx vy vz fx fy fz 
551 1 -3.05953e-05 -0.000233246 -6.07106e-06 5e-05 -0.0507212 0.0177289 -0.072562 0 0 -5.1365e-09 
276 1 -0.000175342 0.000569732 0.00193829 5e-05 0.00595015 0.00262975 -0.0184396 0 0 -5.1365e-09 
453 1 -0.000110135 -0.00017012 4.17519e-05 5e-05 -0.0015363 0.0150293 -0.123584 0 0 -5.1365e-09 
487 1 0.000365948 0.000391824 0.00186191 5e-05 0.00901034 -0.0207413 -0.0433107 0 0 -5.1365e-09 
542 1 -1.73673e-06 0.000461482 0.00185476 5e-05 -0.0132116 -0.0171853 -0.0290917 0 0 -5.1365e-09 
193 1 -0.000321283 -6.64186e-05 0.0018346 5e-05 -0.0106008 -0.0364885 -0.028374 0 0 -5.1365e-09 
323 1 0.000319528 -0.000509877 0.00195445 5e-05 -0.000339262 0.0184652 -0.025681 0 0 -5.1365e-09 
356 1 0.000155863 -0.000494706 0.00185163 5e-05 -3.1958e-05 0.00597897 -0.0143563 0 0 -5.1365e-09 
24 1 8.04353e-05 -4.4957e-05 -3.33236e-05 5e-05 0.0698948 -0.0263234 -0.158968 0 0 -5.1365e-09 
37 1 6.92409e-05 6.45989e-05 2.87431e-05 5e-05 -0.0985531 0.0138472 -0.161234 0 0 -5.1365e-09 
420 1 5.45841e-05 -0.000507225 0.00193002 5e-05 -0.00735304 0.0151187 -0.0242697 0 0 -5.1365e-09 
222 1 0.000241429 -3.75064e-05 1.17768e-05 5e-05 0.00216271 0.0175656 -0.105257 0 0 -5.1365e-09 
445 1 -0.00017023 -0.000416482 0.00186912 5e-05 0.010274 0.00360096 -0.0220151 0 0 -5.1365e-09 
469 1 7.40068e-06 -0.000664198 0.00182563 5e-05 -0.0200012 0.00430229 -0.0387234 0 0 -5.1365e-09 
115 1 1.00375e-05 0.000160752 -3.27054e-06 5e-05 -0.0380311 -0.0316591 -0.169471 0 0 -5.1365e-09 
562 1 0.000308178 0.000553773 0.00169043 5e-05 0.0089269 0.0013687 -0.0296203 0 0 -5.1365e-09 
459 1 8.62695e-05 0.00022908 2.00155e-05 5e-05 -0.0346176 -0.0183366 -0.12731 0 0 -5.1365e-09 
23 1 -5.82517e-05 -0.000241534 0.000100244 5e-05 0.00417057 0.0689502 -0.103311 0 0 -5.1365e-09 
558 1 5.39558e-05 -0.00024184 0.000134386 5e-05 0.0164833 -0.0131757 -0.11154 0 0 -5.1365e-09 
379 1 -0.000141321 -0.000194295 0.00013649 5e-05 -0.0305279 -0.0110116 -0.146438 0 0 -5.1365e-09 
251 1 3.4224e-05 -4.63267e-05 9.80253e-05 5e-05 -0.0383592 -0.0249646 -0.139477 0 0 -5.1365e-09 
89 1 0.000140062 -0.000186961 7.5663e-05 5e-05 0.0782012 -0.0237144 -0.134232 0 0 -5.1365e-09 
541 1 0.000159721 -0.000120245 0.000157714 5e-05 0.0234377 -0.00234725 -0.141005 0 0 -5.1365e-09 
383 1 -0.000258874 5.24754e-05 0.000127065 5e-05 0.0165266 0.0412549 -0.16924 0 0 -5.1365e-09 
367 1 -0.000198363 -7.61002e-05 5.02347e-05 5e-05 -0.0179032 -0.0175143 -0.176642 0 0 -5.1365e-09 
49 1 -1.75227e-05 -5.51974e-06 -7.29779e-07 5e-05 -0.0231212 0.0542396 -0.160809 0 0 -5.1365e-09 
482 1 -0.000212411 1.55354e-05 -3.468e-05 5e-05 -0.0219059 -0.0266391 -0.216662 0 0 -5.1365e-09 
463 1 -0.00017794 -4.051e-05 0.000156968 5e-05 0.0170642 -0.0259323 -0.128363 0 0 -5.1365e-09 
388 1 -0.00016467 7.75367e-05 0.000149633 5e-05 0.0154385 0.000914349 -0.159149 0 0 -5.1365e-09 
321 1 -7.14444e-05 -3.28377e-05 0.000106795 5e-05 -0.00809937 0.00813742 -0.181778 0 0 -5.1365e-09 
493 1 0.000207273 7.79304e-05 6.94533e-05 5e-05 -0.0153973 0.0179385 -0.12811 0 0 -5.1365e-09 
299 1 0.000144918 -1.78938e-05 5.37926e-05 5e-05 -0.0866591 0.0693733 -0.112647 0 0 -5.1365e-09 
13 1 0.000216338 -2.44988e-06 0.00012955 5e-05 0.0230395 0.0280459 -0.125629 0 0 -5.1365e-09 
350 1 0.000258193 8.54797e-05 0.000180722 5e-05 -0.0636159 -0.0288365 -0.0721123 0 0 -5.1365e-09 
86 1 -0.000107618 7.44488e-05 6.1149e-05 5e-05 0.0104784 -0.00225466 -0.145036 0 0 -5.1365e-09 
10 1 -0.00021817 0.00016014 0.000176333 5e-05 0.016718 0.0135366 -0.0987339 0 0 -5.1365e-09 
475 1 -2.57168e-05 0.000108497 0.000150456 5e-05 -0.00859348 -0.031985 -0.121062 0 0 -5.1365e-09 
434 1 0.000107298 0.000134136 9.55165e-05 5e-05 -0.0334637 0.0352289 -0.17149 0 0 -5.1365e-09 
91 1 0.000200741 0.000174278 0.000135866 5e-05 -0.0317122 0.03857 -0.0977645 -2.07932e-06 -5.94523e-06 1.55536e-06 
108 1 -8.53636e-05 0.000261304 0.000185215 5e-05 0.0655985 -0.00654076 -0.112084 0 0 -5.1365e-09 
422 1 -1.91513e-05 0.000239768 9.69699e-05 5e-05 0.0252056 -0.0733226 -0.0625466 0 0 -5.1365e-09 
90 1 0.000114155 0.000212438 0.00019133 5e-05 -0.0393819 -0.0268061 -0.123098 0 0 -5.1365e-09 
402 1 6.40165e-05 -0.000299064 0.000327416 5e-05 -0.0403726 -0.0202223 -0.134754 0 0 -5.1365e-09 
239 1 -0.000220717 -0.00016582 0.000252224 5e-05 0.00905676 0.00218007 -0.0673161 0 0 -5.1365e-09 
153 1 -0.000113343 -0.000129045 0.000231936 5e-05 0.0325191 0.0206408 -0.177333 0 0 -5.1365e-09 
528 1 -6.53007e-05 -0.000202471 0.000293358 5e-05 0.052642 -0.0163893 -0.175238 0 0 -5.1365e-09 
25 1 3.1053e-06 -0.000136368 0.000186733 5e-05 -0.0405535 0.0453916 -0.139231 0 0 -5.1365e-09 
92 1 5.29167e-05 -0.000196892 0.000273317 5e-05 -0.00652554 -0.00191068 -0.16712 0 0 -5.1365e-09 
381 1 0.000162513 -0.000194283 0.000255788 5e-05 0.00853672 -0.0371082 -0.158924 0 0 -5.1365e-09 
331 1 0.000265874 -0.000110575 0.000209261 5e-05 0.0332964 0.0389546 -0.173203 0 0 -5.1365e-09 
123 1 -0.000297002 4.80606e-05 0.000269006 5e-05 0.0339611 0.00590844 -0.10877 0 0 -5.1365e-09 
61 1 -0.000285408 -9.01357e-05 0.000295372 5e-05 0.0567025 -0.0638658 -0.136068 0 0 -5.1365e-09 
363 1 -0.000172681 -8.57755e-05 0.000327935 5e-05 0.0305463 -0.0315145 -0.110081 0 0 -5.1365e-09 
126 1 -0.000170431 2.36969e-05 0.000259779 5e-05 0.0506329 -0.00834731 -0.131865 0 0 -5.1365e-09 
30 1 -5.84432e-05 8.92684e-06 0.000229629 5e-05 0.00760578 0.0533875 -0.13516 0 0 -5.1365e-09 
564 1 3.25106e-05 -1.40894e-05 0.000274147 5e-05 0.0439492 0.0310305 -0.130287 0 0 -5.1365e-09 
78 1 4.34885e-05 2.16041e-05 0.000177217 5e-05 -0.079324 0.0679846 -0.1042 0 0 -5.1365e-09 
549 1 0.000168713 5.66039e-05 0.000311381 5e-05 0.0191621 -0.0103721 -0.156101 0 0 -5.1365e-09 
17 1 0.000148516 0.000103869 0.000197617 5e-05 -0.0200259 0.030468 -0.151917 0 0 -5.1365e-09 
136 1 0.000312402 -5.64411e-06 0.000287544 5e-05 -0.0211663 0.0173942 -0.162092 0 0 -5.1365e-09 
457 1 0.000287122 9.51797e-05 0.000278901 5e-05 -0.0695139 0.0217579 -0.108758 0 0 -5.1365e-09 
393 1 -0.000219375 9.32932e-05 0.0003311 5e-05 0.0297557 -0.0118452 -0.118881 0 0 -5.1365e-09 
60 1 7.17477e-06 0.000200236 0.000231504 5e-05 -0.0566903 0.0185772 -0.123799 0 0 -5.1365e-09 
358 1 9.19727e-05 0.00016223 0.000290154 5e-05 -0.0162048 0.0248818 -0.121851 0 0 -5.1365e-09 
50 1 0.000194509 0.000195193 0.000279952 5e-05 -0.00257618 0.0613937 -0.14373 0 0 -5.1365e-09 
384 1 3.83373e-05 0.000305964 0.000297183 5e-05 0.00285829 -0.0559864 -0.0481014 0 0 -5.1365e-09 
160 1 -0.0001528 -0.000258192 0.000456422 5e-05 0.0219529 -0.022922 -0.142231 0 0 -5.1365e-09 
489 1 -6.28622e-05 -0.000318932 0.000379447 5e-05 0.00157782 0.0457915 -0.0842793 0 0 -5.1365e-09 
473 1 -2.13262e-05 -0.00034815 0.000504263 5e-05 0.0418244 0.03061 -0.0607113 0 0 -5.1365e-09 
401 1 -7.09118e-05 -0.00019144 0.000392824 5e-05 0.0547693 -0.0100635 -0.0959396 0 0 -5.1365e-09 
75 1 -0.000140301 -0.000121757 0.000423668 5e-05 -0.00113992 0.0132681 -0.149988 0 0 -5.1365e-09 
449 1 -2.42204e-05 -9.16254e-05 0.000360865 5e-05 0.0464223 -0.00917402 -0.160782 0 0 -5.1365e-09 
196 1 3.12763e-05 -0.000169173 0.000458722 5e-05 0.0335038 -0.0012563 -0.139508 0 0 -5.1365e-09 
141 1 0.000194605 -0.000109781 0.000360173 5e-05 0.00331438 0.0313996 -0.115644 0 0 -5.1365e-09 
448 1 8.98873e-05 -0.000157396 0.000367958 5e-05 0.0202111 -0.0184605 -0.1899 0 0 -5.1365e-09 
121 1 0.000234313 -0.000179258 0.000425756 5e-05 -0.0519562 0.0526471 -0.103774 0 0 -5.1365e-09 
421 1 -0.000282402 3.95467e-05 0.000433327 5e-05 0.0321649 0.0106395 -0.127462 0 0 -5.1365e-09 
47 1 -0.000165598 5.60235e-05 0.000446301 5e-05 0.0505951 0.0045624 -0.152502 0 0 -5.1365e-09 
142 1 -0.000104003 -1.43677e-05 0.000394911 5e-05 0.0259168 -0.000377604 -0.157326 0 0 -5.1365e-09 
170 1 0.000176942 -1.42008e-05 0.000395361 5e-05 -0.0469322 0.0205746 -0.128143 0 0 -5.1365e-09 
261 1 0.000238315 8.4935e-05 0.000385352 5e-05 0.00915256 0.0069674 -0.125596 0 0 -5.1365e-09 
274 1 0.000281608 -1.66503e-05 0.000382622 5e-05 -0.0335446 0.020857 -0.140838 0 0 -5.1365e-09 
340 1 0.000244954 3.09716e-05 0.000482825 5e-05 -0.0302116 0.0158983 -0.116117 0 0 -5.1365e-09 
537 1 -0.000214791 0.000180075 0.00040362 5e-05 0.0175501 0.00850292 -0.0512013 0 0 -5.1365e-09 
320 1 -0.000295984 0.000141429 0.000459604 5e-05 0.00582546 -0.0326693 -0.126558 0 0 -5.1365e-09 
87 1 -7.10317e-05 0.000184319 0.00039161 5e-05 -0.0566219 -0.0666788 -0.168898 0 0 -5.1365e-09 
213 1 4.86735e-05 9.45509e-05 0.000381945 5e-05 -0.0221948 -0.000145052 -0.144507 0 0 -5.1365e-09 
454 1 0.000147199 9.462e-05 0.000489058 5e-05 -0.0232484 -0.00706884 -0.131667 0 0 -5.1365e-09 
497 1 0.000213311 0.000190471 0.000381182 5e-05 -0.021321 0.00557709 -0.157956 0 0 -5.1365e-09 
560 1 -0.000124804 0.000292337 0.00042907 5e-05 0.0601651 0.0180026 -0.063098 0 0 -5.1365e-09 
441 1 6.66204e-05 0.000242643 0.000443547 5e-05 0.0496939 0.0230964 -0.0711419 0 0 -5.1365e-09 
342 1 -0.000251817 -0.000243307 0.000568349 5e-05 0.0680518 0.0121818 -0.10225 0 0 -5.1365e-09 
168 1 -0.00010884 -0.000338201 0.000559023 5e-05 0.0410935 0.026848 -0.0738747 0 0 -5.1365e-09 
281 1 9.78099e-05 -0.000217838 0.00057337 5e-05 0.00504173 -0.0131605 -0.148839 0 0 -5.1365e-09 
42 1 0.00012565 -0.000312429 0.000659786 5e-05 0.0406023 0.0116445 -0.0766435 0 0 -5.1365e-09 
291 1 0.000222946 -0.00023548 0.00052471 5e-05 -0.030559 0.0263815 -0.116836 0 0 -5.1365e-09 
387 1 -0.000303458 -0.000167838 0.000609636 5e-05 0.0397372 0.000886098 -0.0741234 0 0 -5.1365e-09 
51 1 -7.14734e-05 -0.000102135 0.000581423 5e-05 -0.0169622 0.057341 -0.0884129 0 0 -5.1365e-09 
538 1 0.000155093 -0.000121755 0.000534896 5e-05 0.00879754 0.0764985 -0.163676 0 0 -5.1365e-09 
35 1 0.000255069 -0.000146729 0.000582147 5e-05 -0.0480885 0.0252094 -0.104688 0 0 -5.1365e-09 
26 1 -0.000387536 -3.59966e-05 0.000642101 5e-05 0.0237081 -0.0102292 -0.133811 0 0 -5.1365e-09 
6 1 -0.000216941 -0.000103262 0.000581607 5e-05 -0.00149896 -0.0657659 -0.169852 0 0 -5.1365e-09 
324 1 -7.94547e-05 2.57803e-05 0.000496252 5e-05 0.0307024 -0.0114563 -0.157579 0 0 -5.1365e-09 
228 1 -0.000132068 -5.69196e-05 0.000659061 5e-05 0.00696584 0.0182167 -0.120399 0 0 -5.1365e-09 
95 1 -0.000189395 4.53699e-05 0.000543067 5e-05 0.0355579 -0.00469948 -0.118669 0 0 -5.1365e-09 
305 1 -1.62784e-05 -1.98183e-05 0.000559573 5e-05 0.0432008 0.0318876 -0.0799003 0 0 -5.1365e-09 
507 1 9.01063e-05 -1.59717e-05 0.000503646 5e-05 0.0134699 0.0184461 -0.126235 0 0 -5.1365e-09 
330 1 0.000219324 4.86696e-05 0.000612057 5e-05 -0.052609 0.0237038 -0.149546 0 0 -5.1365e-09 
447 1 0.000374513 8.12622e-06 0.000614294 5e-05 -0.0166296 0.0321494 -0.121355 0 0 -5.1365e-09 
226 1 -0.000353378 8.73175e-05 0.000660027 5e-05 0.00683032 0.00232033 -0.106539 0 0 -5.1365e-09 
224 1 -0.000267235 0.000195031 0.000585326 5e-05 0.0415504 -0.0191082 -0.12386 0 0 -5.1365e-09 
389 1 -3.30455e-05 0.000171107 0.000516059 5e-05 0.0540367 -0.0402099 -0.140864 0 0 -5.1365e-09 
504 1 6.41196e-05 0.000150152 0.000566261 5e-05 -0.0820237 -0.00955297 -0.166211 0 0 -5.1365e-09 
479 1 0.000155827 0.000131521 0.00063958 5e-05 -0.0304111 -0.000368041 -0.12777 0 0 -5.1365e-09 
287 1 0.000239776 0.000121961 0.000541966 5e-05 -0.00789771 -0.0211896 -0.134836 0 0 -5.1365e-09 
346 1 0.000212663 0.000231301 0.000525649 5e-05 -0.0207499 -0.006993 -0.150281 0 0 -5.1365e-09 
84 1 0.000275227 0.000176515 0.000625287 5e-05 -0.0241929 -0.0207028 -0.0853189 0 0 -5.1365e-09 
476 1 3.73355e-05 0.000359299 0.000622686 5e-05 -0.0433684 -0.0288859 -0.101339 0 0 -5.1365e-09 
140 1 -3.29364e-05 0.000257535 0.000639365 5e-05 -0.0343033 -0.0154769 -0.127293 0 0 -5.1365e-09 
256 1 -1.82848e-06 0.000269159 0.000512367 5e-05 -0.0396754 0.0287117 -0.169717 0 0 -5.1365e-09 
74 1 0.0001584 0.000312677 0.000498714 5e-05 -0.0437195 -0.00630881 -0.144123 0 0 -5.1365e-09 
244 1 0.000261832 0.000279568 0.000679676 5e-05 -0.0346122 -0.00849047 -0.0730252 0 0 -5.1365e-09 
227 1 -0.000248405 -0.000289065 0.000733708 5e-05 0.0288111 -0.00950468 -0.141569 0 0 -5.1365e-09 
317 1 9.33236e-05 -0.00021781 0.000790011 5e-05 0.00802177 0.0463019 -0.117589 0 0 -5.1365e-09 
159 1 0.000314834 -0.000232315 0.000729219 5e-05 0.00427186 0.0276687 -0.0794726 0 0 -5.1365e-09 
429 1 -0.000342306 -0.000168416 0.000718972 5e-05 0.0255923 -0.0183032 -0.118983 0 0 -5.1365e-09 
165 1 -0.000196866 -0.000198111 0.000721893 5e-05 0.0193391 -0.0362542 -0.15713 0 0 -5.1365e-09 
103 1 -0.000284798 -0.00013448 0.00081108 5e-05 0.0356217 0.000917876 -0.113099 0 0 -5.1365e-09 
455 1 -0.000116446 -0.000126848 0.000728853 5e-05 0.0444869 -0.0183679 -0.0981951 0 0 -5.1365e-09 
3 1 -1.04645e-05 -0.000122772 0.000734115 5e-05 0.0220651 0.0463143 -0.123134 0 0 -5.1365e-09 
496 1 0.000270293 -0.000127212 0.00068342 5e-05 -0.039532 0.0102079 -0.112763 0 0 -5.1365e-09 
438 1 -0.000367525 -5.11089e-06 0.000755057 5e-05 0.0395848 0.00263528 -0.120743 0 0 -5.1365e-09 
214 1 -0.000223273 1.54478e-05 0.000652604 5e-05 0.0583697 0.00705884 -0.141985 0 0 -5.1365e-09 
45 1 -0.000263122 -7.8414e-05 0.000729502 5e-05 0.0436404 -0.0097187 -0.116364 0 0 -5.1365e-09 
325 1 0.000206874 -7.08286e-05 0.000782857 5e-05 -0.0386831 0.00476019 -0.13316 0 0 -5.1365e-09 
34 1 0.000197287 8.77735e-05 0.000734036 5e-05 -0.0405364 0.0203516 -0.121759 0 0 -5.1365e-09 
100 1 0.000251721 1.94763e-05 0.000786523 5e-05 -0.0592413 0.00283794 -0.123947 0 0 -5.1365e-09 
266 1 0.000350877 6.87086e-05 0.000716158 5e-05 -0.0740611 -0.0105612 -0.0905407 0 0 -5.1365e-09 
109 1 -0.000254868 0.000122345 0.000671281 5e-05 0.0226628 -0.00491775 -0.156157 0 0 -5.1365e-09 
347 1 -0.000144058 0.000144556 0.000661021 5e-05 0.0369692 0.00620768 -0.144912 0 0 -5.1365e-09 
225 1 0.000102485 0.000217845 0.000695014 5e-05 -0.0325784 0.0113957 -0.139613 0 0 -5.1365e-09 
282 1 0.000333784 0.000229601 0.000804598 5e-05 -0.0549332 -0.00114553 -0.090571 0 0 -5.1365e-09 
181 1 -5.10675e-05 0.000199389 0.000724965 5e-05 -0.00806372 -0.0465356 -0.136666 0 0 -5.1365e-09 
413 1 0.000209237 0.000348318 0.000810405 5e-05 -0.0316042 0.00293413 -0.123758 0 0 -5.1365e-09 
502 1 1.80171e-05 0.000389467 0.000755972 5e-05 -0.0333445 -0.0208796 -0.0581782 0 0 -5.1365e-09 
113 1 -0.000163267 -0.000407828 0.000930621 5e-05 0.0468767 0.0330074 -0.071391 0 0 -5.1365e-09 
9 1 -5.67342e-05 -0.000416481 0.000919325 5e-05 -0.0157127 0.00867391 -0.100925 0 0 -5.1365e-09 
107 1 0.00014208 -0.000380814 0.000848665 5e-05 0.000932824 0.017217 -0.11402 0 0 -5.1365e-09 
514 1 -0.000342479 -0.000279949 0.000923641 5e-05 0.0215251 0.00870034 -0.108551 0 0 -5.1365e-09 
400 1 -0.000247605 -0.000321702 0.000951724 5e-05 0.0370425 0.000719212 -0.114255 0 0 -5.1365e-09 
204 1 -0.000129581 -0.00027812 0.000813425 5e-05 0.0343415 -0.036444 -0.135786 0 0 -5.1365e-09 
536 1 2.80023e-05 -0.000342749 0.000893942 5e-05 -0.00367604 0.0324781 -0.115486 0 0 -5.1365e-09 
296 1 0.000243256 -0.000243042 0.000903476 5e-05 -0.0121306 0.0397209 -0.0862514 0 0 -5.1365e-09 
337 1 -0.000356368 -0.000216574 0.00084578 5e-05 0.039074 0.00119773 -0.0981588 0 0 -5.1365e-09 
355 1 -0.000411512 -0.000139095 0.00088592 5e-05 0.0456703 0.00515227 -0.092609 0 0 -5.1365e-09 
191 1 -0.000250767 -0.000233664 0.000888988 5e-05 0.0333531 -0.0147089 -0.112294 0 0 -5.1365e-09 
397 1 -0.000313841 -0.00014082 0.000957897 5e-05 0.0856964 0.00678982 -0.0977671 0 0 -5.1365e-09 
312 1 -0.000187443 -0.000131503 0.000838126 5e-05 0.054726 0.00170246 -0.114296 0 0 -5.1365e-09 
467 1 0.000307089 -9.54629e-05 0.000918702 5e-05 -0.0242381 -0.0112998 -0.131675 0 0 -5.1365e-09 
258 1 0.000399094 -0.000145261 0.000923054 5e-05 -0.023577 0.00886981 -0.0873336 0 0 -5.1365e-09 
506 1 -0.000313771 -2.83869e-06 0.000858358 5e-05 0.0298076 -0.00094984 -0.130905 0 0 -5.1365e-09 
329 1 -0.000198194 -5.15999e-05 0.000917602 5e-05 0.0445987 0.000961369 -0.114507 0 0 -5.1365e-09 
431 1 -0.00011493 -4.98536e-05 0.000858019 5e-05 0.0324941 -0.0103705 -0.127257 0 0 -5.1365e-09 
155 1 4.07541e-05 -4.55186e-05 0.000869613 5e-05 -0.0602652 0.0143934 -0.118045 0 0 -5.1365e-09 
304 1 0.000179978 3.1624e-05 0.000907072 5e-05 -0.0554302 -0.009601 -0.118453 0 0 -5.1365e-09 
195 1 0.000283817 5.98696e-05 0.000892087 5e-05 -0.0462301 0.000288191 -0.133344 0 0 -5.1365e-09 
208 1 0.000445768 7.35538e-06 0.000861182 5e-05 -0.0307313 0.00045237 -0.107787 0 0 -5.1365e-09 
297 1 -0.000358365 0.000188033 0.000892391 5e-05 0.0459394 0.00598592 -0.0786691 0 0 -5.1365e-09 
351 1 -0.000414931 8.30777e-05 0.000928549 5e-05 0.0167496 -0.00701556 -0.103033 0 0 -5.1365e-09 
174 1 -0.000237918 0.000132752 0.000943004 5e-05 0.0307201 -0.0561326 -0.0766187 0 0 -5.1365e-09 
547 1 0.000127469 0.000231822 0.000881521 5e-05 -0.0420169 0.0252196 -0.120981 0 0 -5.1365e-09 
135 1 0.000239997 0.000225523 0.00086155 5e-05 -0.0361682 0.00346447 -0.111235 0 0 -5.1365e-09 
11 1 0.00039746 0.000130109 0.00088203 5e-05 -0.043353 0.00312805 -0.0882464 0 0 -5.1365e-09 
175 1 0.00043446 0.000163179 0.00100381 5e-05 -0.0296868 0.00742326 -0.079616 0 0 -5.1365e-09 
394 1 -0.000185767 0.000299811 0.000985678 5e-05 0.00989447 -0.0590557 -0.0862125 0 0 -5.1365e-09 
218 1 7.48488e-05 0.00042984 0.000911013 5e-05 -0.062209 0.00315476 -0.0823404 0 0 -5.1365e-09 
68 1 -0.00023302 -0.000401983 0.00105876 5e-05 0.0365535 0.0132784 -0.0767241 0 0 -5.1365e-09 
382 1 0.000126779 -0.000373328 0.00111268 5e-05 0.00478109 0.0206207 -0.101772 0 0 -5.1365e-09 
298 1 0.000281696 -0.000400583 0.00113921 5e-05 -0.0031508 0.0432521 -0.0644868 0 0 -5.1365e-09 
237 1 -0.000407162 -0.000267748 0.00114084 5e-05 0.0147573 0.00324182 -0.0892922 0 0 -5.1365e-09 
29 1 -0.000342155 -0.000320869 0.0010774 5e-05 0.0251874 0.0105031 -0.0750289 0 0 -5.1365e-09 
295 1 -0.000289726 -0.000232609 0.00100181 5e-05 0.0368296 0.00207411 -0.109054 0 0 -5.1365e-09 
166 1 0.000448178 -0.000218661 0.0010894 5e-05 -0.00792653 0.0256813 -0.0880575 0 0 -5.1365e-09 
83 1 -0.000445173 -0.000164061 0.00102259 5e-05 0.0378291 -0.0166957 -0.0866714 0 0 -5.1365e-09 
46 1 -0.000484662 -9.83232e-05 0.00114097 5e-05 0.0340687 0.0028285 -0.0749525 0 0 -5.1365e-09 
343 1 -0.000176054 -0.000142288 0.00108906 5e-05 0.0473909 0.0259002 -0.0866959 0 0 -5.1365e-09 
316 1 0.000226907 -0.000163684 0.00107169 5e-05 -0.0358641 0.0332398 -0.0898242 0 0 -5.1365e-09 
215 1 0.000341709 -0.000166573 0.00105484 5e-05 -0.0139524 0.00423506 -0.088341 0 0 -5.1365e-09 
27 1 0.000457064 -0.000100822 0.00110074 5e-05 -0.0146575 -0.00153202 -0.0872654 0 0 -5.1365e-09 
111 1 -0.000457863 -4.45273e-05 0.0010079 5e-05 0.0386195 0.000335052 -0.0820071 0 0 -5.1365e-09 
179 1 -0.000344714 1.27082e-05 0.00100392 5e-05 0.0429083 -0.00298047 -0.0994808 0 0 -5.1365e-09 
532 1 -0.000346397 -0.000125314 0.00105806 5e-05 0.036462 -0.035244 -0.113565 0 0 -5.1365e-09 
82 1 -0.000144265 -5.63825e-05 0.00102708 5e-05 -0.0582155 -0.0180804 -0.104197 0 0 -5.1365e-09 
512 1 0.00034269 5.24123e-06 0.000966971 5e-05 -0.0251282 0.00468922 -0.125833 0 0 -5.1365e-09 
233 1 0.000295897 -6.75087e-05 0.00107528 5e-05 -0.0418953 0.00910234 -0.111767 0 0 -5.1365e-09 
194 1 0.00048667 1.86201e-06 0.00105644 5e-05 -0.0318939 0.00470823 -0.0572417 0 0 -5.1365e-09 
465 1 0.000421375 -6.09465e-07 0.00115765 5e-05 -0.0501991 -0.0164064 -0.0776278 0 0 -5.1365e-09 
339 1 -0.000462689 8.47951e-05 0.00108607 5e-05 0.0244907 -0.00643847 -0.0743044 0 0 -5.1365e-09 
371 1 0.000202912 0.000208722 0.00102776 5e-05 -0.0298536 0.00115212 -0.107789 0 0 -5.1365e-09 
205 1 0.00027793 0.000130666 0.000984995 5e-05 -0.0258925 0.0088275 -0.119396 0 0 -5.1365e-09 
272 1 0.000231883 0.00012541 0.00114323 5e-05 -0.00653822 0.0048561 -0.0990244 0 0 -5.1365e-09 
21 1 0.00046687 0.000142209 0.00111155 5e-05 -0.0322685 -0.00820284 -0.0499814 0 0 -5.1365e-09 
408 1 -0.000391864 0.000212526 0.00102476 5e-05 0.00855656 -0.0332929 -0.0976292 0 0 -5.1365e-09 
290 1 0.000323596 0.000332843 0.00106258 5e-05 -0.02639 -0.0121668 -0.0806561 0 0 -5.1365e-09 
444 1 0.000343244 0.000223554 0.000976999 5e-05 -0.0337331 -0.013586 -0.114902 0 0 -5.1365e-09 
72 1 0.000301062 0.000237339 0.00112826 5e-05 -0.0169612 -0.00821993 -0.1073 0 0 -5.1365e-09 
419 1 0.00042155 0.000257195 0.00111514 5e-05 -0.00741286 -0.000875766 -0.104485 0 0 -5.1365e-09 
88 1 -0.00022375 0.000398046 0.00108953 5e-05 0.000313145 -0.042889 -0.0731977 0 0 -5.1365e-09 
548 1 -5.31895e-05 0.000461618 0.00104612 5e-05 -0.00349288 -0.0205735 -0.0748417 0 0 -5.1365e-09 
494 1 -5.82187e-05 0.000355828 0.00112137 5e-05 -0.0117463 -0.039892 -0.0824007 0 0 -5.1365e-09 
391 1 0.000306584 0.000388272 0.00114464 5e-05 -0.0335108 -0.0148828 -0.0694375 0 0 -5.1365e-09 
516 1 -0.000302733 -0.000437129 0.00126575 5e-05 0.0220304 0.00880484 -0.0599478 0 0 -5.1365e-09 
283 1 -0.000142495 -0.000477933 0.00125407 5e-05 0.00775486 0.00975003 -0.0708405 0 0 -5.1365e-09 
207 1 4.91897e-05 -0.000495909 0.00121545 5e-05 0.00118351 0.0297266 -0.0623569 0 0 -5.1365e-09 
553 1 0.000156851 -0.000481593 0.00118047 5e-05 0.00814765 0.0393323 -0.0665873 0 0 -5.1365e-09 
188 1 0.000245152 -0.000434566 0.0012831 5e-05 -0.0186542 0.0320422 -0.0476153 0 0 -5.1365e-09 
430 1 -0.000460041 -0.000245204 0.00122431 5e-05 0.0304107 0.000663983 -0.0696522 0 0 -5.1365e-09 
336 1 -0.000313081 -0.000293241 0.00116944 5e-05 0.0332278 0.0201462 -0.105227 0 0 -5.1365e-09 
368 1 -0.00021585 -0.000309264 0.00119546 5e-05 0.0360186 0.0131208 -0.0905444 0 0 -5.1365e-09 
112 1 -0.000312679 -0.000343703 0.00130478 5e-05 0.0395165 0.00820786 -0.087873 0 0 -5.1365e-09 
18 1 -0.000338194 -0.00024404 0.00127506 5e-05 0.00736872 0.0011074 -0.0856718 0 0 -5.1365e-09 
131 1 0.000162355 -0.000289222 0.00131743 5e-05 -0.00678974 0.0201539 -0.0688111 0 0 -5.1365e-09 
236 1 0.000320862 -0.000297918 0.00131851 5e-05 0.0220348 0.0288902 -0.0683387 0 0 -5.1365e-09 
31 1 -0.000498931 -0.000151379 0.00131174 5e-05 0.0215794 -0.0107426 -0.058614 0 0 -5.1365e-09 
263 1 -0.000323732 -0.000161979 0.00115761 5e-05 0.0500049 -0.0141182 -0.0683228 0 0 -5.1365e-09 
63 1 -0.000370075 -0.00014815 0.00125904 5e-05 0.0112264 -0.0162289 -0.0845607 0 0 -5.1365e-09 
43 1 -0.000154881 -0.000230614 0.00128947 5e-05 0.0102926 -0.00393755 -0.0750256 0 0 -5.1365e-09 
294 1 0.000460458 -0.00011031 0.00125644 5e-05 -0.0142544 0.00871204 -0.0691242 0 0 -5.1365e-09 
334 1 -0.00043604 -6.47185e-05 0.00122866 5e-05 0.00254265 0.0138804 -0.078699 0 0 -5.1365e-09 
184 1 -0.000497055 3.3286e-05 0.00119036 5e-05 0.000560093 0.0296129 -0.0842432 0 0 -5.1365e-09 
80 1 -0.000240315 -2.78785e-05 0.00124187 5e-05 -0.00177714 0.0203221 -0.0854237 0 0 -5.1365e-09 
360 1 -0.0003624 -2.86985e-05 0.00114688 5e-05 0.00862799 0.0055678 -0.107575 0 0 -5.1365e-09 
345 1 0.000377487 -2.92505e-05 0.00124968 5e-05 -0.00197148 -0.0204815 -0.0926166 0 0 -5.1365e-09 
407 1 0.000535002 6.72078e-05 0.00130336 5e-05 -0.0269918 0.0126523 -0.0662594 0 0 -5.1365e-09 
267 1 -0.000447569 0.000130734 0.0011993 5e-05 0.0283909 -0.0170223 -0.0676031 0 0 -5.1365e-09 
409 1 -0.000502902 5.60602e-05 0.00131545 5e-05 0.0158856 -0.0219683 -0.0768585 0 0 -5.1365e-09 
76 1 -0.000346989 0.000149369 0.00125287 5e-05 0.0392866 0.0366839 -0.09164 0 0 -5.1365e-09 
515 1 0.000366718 0.000175897 0.00118528 5e-05 -0.00501679 -0.010159 -0.107591 0 0 -5.1365e-09 
458 1 0.000257392 0.000179846 0.00122876 5e-05 -0.0263426 0.0130056 -0.0982514 0 0 -5.1365e-09 
44 1 0.000487853 0.000163339 0.00125014 5e-05 -0.01957 -0.0285647 -0.0635523 0 0 -5.1365e-09 
210 1 -0.000419497 0.000278662 0.00121349 5e-05 0.0245038 0.00832525 -0.07466 0 0 -5.1365e-09 
273 1 -0.000321947 0.000322418 0.0012264 5e-05 0.0162816 -0.0640543 -0.0527552 0 0 -5.1365e-09 
134 1 0.000104905 0.00030399 0.00124155 5e-05 -0.0281402 -0.0060334 -0.0859166 0 0 -5.1365e-09 
66 1 0.000240237 0.000285342 0.00122803 5e-05 -0.00509093 0.0114902 -0.0963071 0 0 -5.1365e-09 
120 1 0.00033385 0.000262105 0.00127018 5e-05 -0.0212053 -0.025695 -0.095241 0 0 -5.1365e-09 
418 1 0.000401691 0.000370133 0.00130518 5e-05 -0.0228299 -0.0126861 -0.0473284 0 0 -5.1365e-09 
16 1 0.000438559 0.000265019 0.00128378 5e-05 -0.0234073 0.000283611 -0.0757795 0 0 -5.1365e-09 
435 1 -0.000230366 0.00044982 0.00120606 5e-05 0.0105444 -0.0281619 -0.0679492 0 0 -5.1365e-09 
223 1 -0.000365823 0.000401052 0.00132953 5e-05 -0.0200488 -0.0176402 -0.0572383 0 0 -5.1365e-09 
450 1 0.000205142 0.000459942 0.00120844 5e-05 -0.0156952 0.0141281 -0.0873595 0 0 -5.1365e-09 
71 1 0.000309911 0.000413412 0.00125039 5e-05 -0.0148348 0.0125742 -0.0717633 0 0 -5.1365e-09 
399 1 -0.000390058 -0.000424673 0.00141927 5e-05 0.0175041 0.0214055 -0.0525345 0 0 -5.1365e-09 
286 1 -0.000321408 -0.000384024 0.00148268 5e-05 0.00676293 0.013313 -0.0630684 0 0 -5.1365e-09 
67 1 -0.000167469 -0.000522663 0.00139534 5e-05 0.0223876 0.0155482 -0.0417652 0 0 -5.1365e-09 
335 1 -0.000208625 -0.000430044 0.00150822 5e-05 -0.0133 0.0097782 -0.0230785 0 0 -5.1365e-09 
373 1 0.000185404 -0.000511844 0.00137283 5e-05 0.000430832 0.0166237 -0.0588944 0 0 -5.1365e-09 
14 1 0.000176093 -0.00049511 0.00150406 5e-05 0.0287334 0.00440545 -0.0281454 0 0 -5.1365e-09 
511 1 0.000223851 -0.000377379 0.00142707 5e-05 0.00724937 0.026665 -0.0618838 0 0 -5.1365e-09 
118 1 0.00038373 -0.00040481 0.00135117 5e-05 0.0203681 0.022287 -0.046143 0 0 -5.1365e-09 
545 1 0.000275391 -0.000485037 0.00142578 5e-05 0.00150944 0.0186158 -0.0521208 0 0 -5.1365e-09 
417 1 -0.000417528 -0.000349936 0.00132274 5e-05 0.00512653 -0.014194 -0.072182 0 0 -5.1365e-09 
470 1 -0.000499966 -0.000243518 0.00137562 5e-05 -0.0109142 -0.00776721 -0.0703721 0 0 -5.1365e-09 
396 1 -0.00044726 -0.000357574 0.00149 5e-05 0.00992974 -0.0256433 -0.0309492 0 0 -5.1365e-09 
395 1 -0.000364642 -0.00030883 0.0014002 5e-05 0.0029307 0.00703689 -0.0429291 0 0 -5.1365e-09 
544 1 -0.000239292 -0.000306286 0.00149256 5e-05 0.0157359 -0.00140098 -0.0450825 0 0 -5.1365e-09 
99 1 -0.000217427 -0.00033568 0.00139061 5e-05 -0.00605761 -0.00379511 -0.0611306 0 0 -5.1365e-09 
255 1 0.000464708 -0.000355186 0.00151199 5e-05 -0.00173124 0.010647 -0.0202351 0 0 -5.1365e-09 
518 1 0.000525566 -0.000263808 0.00151429 5e-05 -0.000788559 0.0173227 -0.0268071 -9.15196e-08 -1.03712e-07 9.28452e-09 
333 1 -0.00041888 -0.000108316 0.00136159 5e-05 0.0296516 0.00274716 -0.0814297 0 0 -5.1365e-09 
269 1 -0.000385871 -0.000183337 0.00142382 5e-05 0.0142064 -0.021076 -0.0751596 0 0 -5.1365e-09 
270 1 -0.000313503 -0.000102193 0.0014243 5e-05 0.0143365 0.00576769 -0.0674319 0 0 -5.1365e-09 
154 1 -0.000271836 -0.000193208 0.00144412 5e-05 0.00214287 -0.0117043 -0.0634474 0 0 -5.1365e-09 
484 1 -0.000216511 -0.000129194 0.00149789 5e-05 -0.0146375 -0.0133515 -0.047145 0 0 -5.1365e-09 
198 1 0.000513744 -7.1125e-05 0.00145669 5e-05 0.0139509 0.0245678 -0.0612058 0 0 -5.1365e-09 
338 1 -0.00052548 -2.1389e-05 0.00138432 5e-05 0.028871 -0.018241 -0.0482045 0 0 -5.1365e-09 
495 1 -0.000564234 -7.75732e-05 0.00148359 5e-05 0.0156813 -0.0244205 -0.0577743 0 0 -5.1365e-09 
145 1 -0.000564929 3.30509e-05 0.0014848 5e-05 0.000568414 0.0196527 -0.0366582 0 0 -5.1365e-09 
527 1 -0.000413908 -6.71762e-05 0.00146195 5e-05 -0.00359001 -0.0105566 -0.0476595 0 0 -5.1365e-09 
77 1 0.000277786 2.57848e-05 0.0014651 5e-05 -0.0186214 0.00770742 -0.0407197 0 0 -5.1365e-09 
143 1 0.000460038 -1.47146e-05 0.00134815 5e-05 -0.0204472 -0.00431821 -0.0784181 0 0 -5.1365e-09 
69 1 0.000406898 1.00541e-05 0.00150578 5e-05 -0.00696281 0.00289363 -0.0490641 0 0 -5.1365e-09 
245 1 -0.000559512 0.000135163 0.0015171 5e-05 -0.0219201 -0.0106807 -0.0253055 0 0 -5.1365e-09 
161 1 0.000191246 0.000229378 0.00143702 5e-05 0.00181045 0.00100061 -0.0499048 0 0 -5.1365e-09 
568 1 0.0003455 7.96687e-05 0.00133642 5e-05 -0.0222125 -0.0191427 -0.0858694 0 0 -5.1365e-09 
189 1 0.00047132 9.73771e-05 0.0013749 5e-05 -0.0327808 0.0128023 -0.07704 0 0 -5.1365e-09 
466 1 0.000402146 0.000181018 0.0013348 5e-05 -0.0121852 -0.0177845 -0.087926 0 0 -5.1365e-09 
520 1 0.000534838 0.000200483 0.00139434 5e-05 -0.0201336 0.00503846 -0.0871769 0 0 -5.1365e-09 
280 1 -0.000288455 0.000305791 0.00136976 5e-05 1.4403e-05 -0.0384186 -0.0501976 0 0 -5.1365e-09 
164 1 0.000306139 0.000231117 0.00139073 5e-05 -0.00184417 -0.0018224 -0.0821553 0 0 -5.1365e-09 
8 1 0.000250091 0.000330194 0.00148933 5e-05 0.00752125 0.0262618 -0.059662 0 0 -5.1365e-09 
176 1 0.000383029 0.000309349 0.00145286 5e-05 0.00346996 -0.00481582 -0.0781022 0 0 -5.1365e-09 
105 1 0.000478164 0.000269878 0.00144713 5e-05 -0.0256182 -0.00329869 -0.064515 0 0 -5.1365e-09 
505 1 -0.00044192 0.000392886 0.00148317 5e-05 0.000104397 6.29021e-05 -0.000234205 4.58796e-09 2.69882e-09 -1.02988e-08 
540 1 -0.000257486 0.00051258 0.00144087 5e-05 -0.00231422 -0.0168664 -0.0394609 0 0 -5.1365e-09 
522 1 -0.000323814 0.000405986 0.00142855 5e-05 -0.00702238 -0.0103559 -0.0472343 0 0 -5.1365e-09 
56 1 -0.000205763 0.000393394 0.00133974 5e-05 -0.0113656 -0.0297823 -0.0702485 0 0 -5.1365e-09 
486 1 -0.000165446 0.000466391 0.00147564 5e-05 0.00974772 -0.0129518 -0.0526325 0 0 -5.1365e-09 
265 1 0.00028481 0.000465069 0.00133883 5e-05 -0.00935291 -0.00227682 -0.0773233 0 0 -5.1365e-09 
566 1 0.000300956 0.000408246 0.0014387 5e-05 0.0168621 0.00217577 -0.0598506 0 0 -5.1365e-09 
234 1 0.00040327 0.000409721 0.00147598 5e-05 -0.0154759 0.0105284 -0.0446024 0 0 -5.1365e-09 
173 1 -0.000141287 0.000532399 0.00135778 5e-05 0.0108212 -0.0082476 -0.0458934 0 0 -5.1365e-09 
571 1 -4.31555e-05 0.000574249 0.00143645 5e-05 -0.00747543 -0.0153405 -0.0339471 0 0 -5.1365e-09 
106 1 7.28961e-05 0.000539854 0.00141674 5e-05 -0.00482888 -0.0176017 -0.0475584 0 0 -5.1365e-09 
7 1 0.000188005 0.000533294 0.00138951 5e-05 -0.016044 -0.0076908 -0.0601639 0 0 -5.1365e-09 
533 1 -0.000266641 -0.000565359 0.00165914 5e-05 -0.00480435 -0.00110478 -0.026504 0 0 -5.1365e-09 
556 1 -0.000153418 -0.000576883 0.00156309 5e-05 -0.00471336 0.0149012 -0.0281869 -2.41746e-07 -3.6512e-07 -7.14106e-09 
200 1 -4.31865e-05 -0.000617039 0.00162244 5e-05 0.00457683 0.00808922 -0.00327361 0 0 -5.1365e-09 