ITEM: TIMESTEP
21000
ITEM: NUMBER OF ATOMS
568
ITEM: BOX BOUNDS ff ff ff
-0.001 0.001
-0.001 0.001
0 0.004
ITEM: ATOMS id type x y z radius vx vy vz fx fy fz 
276 1 -0.000193192 0.000561843 0.00194947 5e-05 0.00595015 0.00262975 0.0109904 0 0 -5.1365e-09 
252 1 -0.0001457 0.000125161 4.94739e-05 5e-05 0.0392093 0.048456 -0.0778344 0 0 -5.1365e-09 
487 1 0.000338917 0.000454048 0.0019477 5e-05 0.00901034 -0.0207413 -0.0138807 0 0 -5.1365e-09 
542 1 5.30752e-05 0.000432517 0.00196672 5e-05 -0.018838 0.0126578 -0.0251659 0 0 -5.1365e-09 
182 1 -8.63492e-05 -0.000254618 0.000146745 5e-05 -0.0677116 -0.0764171 -0.0653768 0 0 -5.1365e-09 
526 1 0.000173162 -0.000173773 -6.80955e-06 5e-05 -0.0015059 0.0532935 -0.172595 0 0 -5.1365e-09 
322 1 0.000174336 -0.000167557 0.000168343 5e-05 0.0748735 0.0193748 -0.0661667 0 0 -5.1365e-09 
318 1 7.98216e-05 -3.96566e-05 2.33331e-05 5e-05 -0.0377261 0.0396631 -0.204289 0 0 -5.1365e-09 
308 1 -0.000258819 -3.18677e-06 7.72743e-05 5e-05 0.0194618 -0.0476071 -0.17417 0 0 -5.1365e-09 
326 1 -9.20517e-05 1.20244e-05 0.000134926 5e-05 0.0200286 -0.0357423 -0.206282 0 0 -5.1365e-09 
235 1 -4.18713e-05 -3.82615e-05 4.49555e-05 5e-05 0.0066146 0.00478232 -0.208875 0 0 -5.1365e-09 
490 1 0.00016749 9.4667e-06 9.06938e-05 5e-05 -0.0192215 0.0140349 -0.201086 0 0 -5.1365e-09 
157 1 9.23735e-06 0.000220393 0.000204467 5e-05 -0.125569 -0.0167396 0.00168433 0 0 -5.1365e-09 
425 1 -3.50432e-05 0.000258137 9.30592e-05 5e-05 0.0233022 -0.0661323 -0.141928 0 0 -5.1365e-09 
551 1 -6.86245e-06 -0.000304768 0.000256417 5e-05 0.00427411 0.0527785 -0.0778276 0 0 -5.1365e-09 
89 1 3.68293e-05 -0.000281286 0.00036196 5e-05 0.00567427 0.0695668 -0.0660411 0 0 -5.1365e-09 
468 1 -0.000155542 -9.92962e-05 0.000194464 5e-05 0.0654423 -0.0177256 -0.178207 0 0 -5.1365e-09 
250 1 5.90322e-05 -0.00019665 0.0001708 5e-05 0.0534862 -0.0222603 -0.161859 0 0 -5.1365e-09 
285 1 -4.26202e-05 -0.000175259 0.000299336 5e-05 0.00182632 -0.0616004 -0.131879 0 0 -5.1365e-09 
328 1 7.60752e-05 -0.000133071 0.000299169 5e-05 -0.0504329 -0.0159834 -0.172553 0 0 -5.1365e-09 
199 1 0.000126207 -1.59417e-05 0.000183804 5e-05 -0.0328146 0.0596518 -0.158015 0 0 -5.1365e-09 
243 1 -0.000277765 -4.69019e-05 0.000188056 5e-05 0.0613851 -0.0194317 -0.136658 0 0 -5.1365e-09 
36 1 4.35595e-05 -8.26547e-05 0.000124318 5e-05 0.0126213 0.0382008 -0.237127 0 0 -5.1365e-09 
183 1 -2.65451e-05 -1.16831e-05 0.000255841 5e-05 0.0187987 -0.087386 -0.0959208 0 0 -5.1365e-09 
508 1 9.67337e-05 4.92902e-05 0.00028481 5e-05 -0.0383067 -0.0945063 -0.0914803 0 0 -5.1365e-09 
132 1 0.000281274 -4.48996e-06 0.000287931 5e-05 -0.0919343 -0.0322664 -0.100635 0 0 -5.1365e-09 
471 1 -0.000170534 4.69744e-05 0.000196277 5e-05 -0.00183845 -0.0365414 -0.139515 0 0 -5.1365e-09 
311 1 -0.0001017 0.000117495 0.000290188 5e-05 0.00464195 -0.0224615 -0.17363 0 0 -5.1365e-09 
186 1 8.42255e-05 0.000147991 0.000233635 5e-05 -0.0582855 0.00202501 -0.181877 0 0 -5.1365e-09 
529 1 9.97525e-05 0.000262267 0.000195246 5e-05 0.0318584 -0.0256655 -0.0203144 0 0 -5.1365e-09 
422 1 -6.81328e-05 0.000266462 0.000281031 5e-05 -0.050014 -0.0313694 -0.153487 0 0 -5.1365e-09 
57 1 0.000135496 0.000229577 0.000295949 5e-05 -0.0384721 -0.0531793 -0.0992481 0 0 -5.1365e-09 
453 1 -0.000128072 -0.000174401 0.000401417 5e-05 0.000467881 0.0377976 -0.0898243 0 0 -5.1365e-09 
23 1 -0.000102929 -0.000308532 0.000434363 5e-05 0.00733052 0.0320445 -0.126892 0 0 -5.1365e-09 
73 1 0.000149544 -0.000245394 0.000329891 5e-05 -0.0155696 0.0117007 -0.152933 0 0 -5.1365e-09 
367 1 -0.000272726 -0.000103017 0.000352838 5e-05 0.0799776 0.0168025 -0.091557 0 0 -5.1365e-09 
251 1 -5.15854e-05 -0.000112504 0.000438267 5e-05 0.0502965 0.125735 -0.111912 0 0 -5.1365e-09 
24 1 0.000165014 -6.72192e-05 0.000360567 5e-05 -0.0149857 0.0451303 -0.120281 0 0 -5.1365e-09 
299 1 0.00011681 -7.23734e-05 0.000448862 5e-05 -0.0393415 0.0545887 -0.124103 0 0 -5.1365e-09 
222 1 0.000229739 -0.000104728 0.000466525 5e-05 -0.0457279 0.0502105 -0.146546 0 0 -5.1365e-09 
509 1 -0.000239204 1.86137e-05 0.000394135 5e-05 0.0251607 -0.0142552 -0.159327 0 0 -5.1365e-09 
485 1 5.48192e-07 7.54709e-07 0.000402014 5e-05 0.0782181 -0.0242304 -0.167473 0 0 -5.1365e-09 
37 1 0.000218724 1.84443e-05 0.000369697 5e-05 -0.0329852 0.0192318 -0.171567 0 0 -5.1365e-09 
128 1 -0.000200794 0.000157969 0.000359759 5e-05 0.0380021 -0.0577171 -0.113355 0 0 -5.1365e-09 
493 1 0.000328139 7.17851e-05 0.000398619 5e-05 0.0130865 -0.014496 -0.145902 0 0 -5.1365e-09 
115 1 8.29415e-05 0.00023074 0.000436539 5e-05 0.0414637 -0.0104724 -0.160273 0 0 -5.1365e-09 
90 1 0.000172149 0.000283934 0.000464713 5e-05 -0.05395 -0.0253735 -0.0675744 0 0 -5.1365e-09 
379 1 -0.000173295 -0.000252683 0.00049783 5e-05 -0.0360416 -0.0462773 -0.145632 0 0 -5.1365e-09 
528 1 -1.3172e-05 -0.0003123 0.000605884 5e-05 -0.0338193 0.0522204 -0.111056 0 0 -5.1365e-09 
558 1 0.000137137 -0.000312675 0.00050018 5e-05 -0.0230921 0.0131989 -0.149363 0 0 -5.1365e-09 
381 1 0.000200893 -0.000230889 0.000567499 5e-05 -0.055937 0.0311791 -0.0831013 0 0 -5.1365e-09 
239 1 -0.00031123 -0.000128098 0.000491678 5e-05 0.0215619 -0.0277545 -0.151265 0 0 -5.1365e-09 
321 1 -0.000145948 -0.000119578 0.000502051 5e-05 0.0347139 0.0300169 -0.128155 0 0 -5.1365e-09 
153 1 -9.67061e-05 -0.0002105 0.000667636 5e-05 -0.0168407 0.0491755 -0.109272 0 0 -5.1365e-09 
541 1 -2.43168e-07 -0.000180832 0.000512091 5e-05 0.0536796 0.0259871 -0.158142 0 0 -5.1365e-09 
13 1 0.000265827 -0.000105288 0.000580933 5e-05 -0.0408737 0.0490268 -0.141829 0 0 -5.1365e-09 
383 1 -0.000334735 -4.443e-05 0.000599324 5e-05 0.0263313 -0.00682285 -0.167532 0 0 -5.1365e-09 
463 1 -0.000228321 -4.63685e-05 0.000539477 5e-05 0.0311555 -0.0443401 -0.152011 0 0 -5.1365e-09 
49 1 -0.000125722 -7.20042e-06 0.00047961 5e-05 0.041889 -0.0343316 -0.17366 0 0 -5.1365e-09 
434 1 0.000152677 3.08213e-05 0.00057101 5e-05 -0.049313 0.0466112 -0.151564 0 0 -5.1365e-09 
350 1 0.000342135 4.67811e-05 0.000514521 5e-05 -0.04485 0.0055074 -0.107376 0 0 -5.1365e-09 
482 1 -0.000262744 8.25828e-05 0.000497246 5e-05 0.0294078 -0.0197543 -0.145572 0 0 -5.1365e-09 
123 1 -0.000360751 7.22382e-05 0.000632836 5e-05 0.00504816 -0.00806022 -0.133977 0 0 -5.1365e-09 
10 1 -0.000249754 0.000205059 0.000553702 5e-05 0.0227954 -0.0061411 -0.150958 0 0 -5.1365e-09 
388 1 -0.000225443 0.000111499 0.000603817 5e-05 0.0319325 -0.0244382 -0.163782 0 0 -5.1365e-09 
86 1 -2.32345e-05 0.000121381 0.000497193 5e-05 -0.0985956 0.00259064 -0.184415 0 0 -5.1365e-09 
475 1 7.37425e-05 0.000150971 0.000514595 5e-05 -0.0338262 0.00456928 -0.147415 0 0 -5.1365e-09 
91 1 0.000192041 0.000149783 0.000598767 5e-05 0.0165799 -0.00690505 -0.126478 0 0 -5.1365e-09 
459 1 0.000227854 0.00015789 0.000498739 5e-05 -0.0433705 0.0487037 -0.168266 0 0 -5.1365e-09 
60 1 3.48496e-05 0.000260318 0.00058747 5e-05 -0.025586 -0.0363983 -0.147496 0 0 -5.1365e-09 
473 1 -0.00012071 -0.000378118 0.000809338 5e-05 0.0304737 0.0187174 -0.111529 0 0 -5.1365e-09 
401 1 -0.000124858 -0.00023925 0.000764014 5e-05 0.0124243 -0.0409267 -0.0906987 0 0 -5.1365e-09 
489 1 -8.25292e-05 -0.000310231 0.000687506 5e-05 -0.00860234 -0.0203068 -0.0999574 0 0 -5.1365e-09 
196 1 8.73543e-05 -0.000303065 0.000775841 5e-05 -0.0405843 0.0558743 -0.0826395 0 0 -5.1365e-09 
402 1 0.000203268 -0.00028502 0.000691147 5e-05 -0.0419703 0.0528484 -0.084993 0 0 -5.1365e-09 
363 1 -0.000272634 -7.3605e-05 0.000742152 5e-05 -0.0137676 0.0351622 -0.134745 0 0 -5.1365e-09 
449 1 -0.000166447 -0.000128156 0.000755507 5e-05 0.0888524 0.0137711 -0.108044 0 0 -5.1365e-09 
92 1 -5.31525e-05 -0.000147746 0.000747776 5e-05 0.0482677 -0.024454 -0.150759 0 0 -5.1365e-09 
25 1 9.05231e-05 -0.000192176 0.000639737 5e-05 -0.0386864 0.00878656 -0.1452 0 0 -5.1365e-09 
78 1 0.00013281 -6.05862e-05 0.000684806 5e-05 -0.024033 0.0301318 -0.159833 0 0 -5.1365e-09 
331 1 0.000294284 -0.000192703 0.000674357 5e-05 -0.0320464 0.0191422 -0.125604 0 0 -5.1365e-09 
136 1 0.000356837 -0.000100886 0.000685895 5e-05 -0.00841428 0.0356896 -0.118308 0 0 -5.1365e-09 
121 1 0.000345244 -0.000198374 0.000783495 5e-05 -0.0507035 -0.00629338 -0.106273 0 0 -5.1365e-09 
61 1 -0.000393776 -1.5678e-05 0.000703069 5e-05 0.0353904 -0.0307021 -0.125714 0 0 -5.1365e-09 
421 1 -0.000388354 3.69628e-05 0.000816908 5e-05 0.0306859 -0.00729671 -0.0680196 0 0 -5.1365e-09 
126 1 -0.000276146 1.49469e-05 0.000666475 5e-05 0.0450605 -0.00216068 -0.154089 0 0 -5.1365e-09 
30 1 -0.00018274 -2.67991e-05 0.000695098 5e-05 0.0417488 0.00517168 -0.148671 0 0 -5.1365e-09 
564 1 -7.95479e-05 -2.81246e-05 0.000703866 5e-05 0.0615141 -0.0268795 -0.146438 0 0 -5.1365e-09 
213 1 1.32912e-05 9.66444e-05 0.0007527 5e-05 0.0675416 -0.00420557 -0.124617 0 0 -5.1365e-09 
549 1 9.20511e-05 -2.28294e-05 0.000780442 5e-05 0.0746232 -0.00973199 -0.124434 0 0 -5.1365e-09 
50 1 0.000285019 8.44607e-05 0.00070581 5e-05 -0.0399445 0.0355148 -0.142513 0 0 -5.1365e-09 
17 1 0.000240187 -6.27828e-06 0.00067994 5e-05 -0.0261722 0.0222732 -0.168057 0 0 -5.1365e-09 
261 1 0.00030832 2.48744e-05 0.000792758 5e-05 -0.0453841 0.030246 -0.124642 0 0 -5.1365e-09 
457 1 0.000381077 1.17286e-05 0.000698313 5e-05 -0.0444685 0.0341635 -0.125205 0 0 -5.1365e-09 
393 1 -0.000331226 0.000140717 0.000708407 5e-05 0.0464964 -0.0347139 -0.115145 0 0 -5.1365e-09 
47 1 -0.000299183 0.000104354 0.00079609 5e-05 0.0478182 -0.0296108 -0.110057 0 0 -5.1365e-09 
87 1 -8.98396e-05 0.000174662 0.000768216 5e-05 -0.0396065 0.0458489 -0.127656 0 0 -5.1365e-09 
358 1 0.00010371 0.000118585 0.00068735 5e-05 -0.035866 -0.0208079 -0.160643 0 0 -5.1365e-09 
537 1 -0.000254254 0.000277401 0.00072308 5e-05 0.0262791 -0.0650256 -0.0903199 0 0 -5.1365e-09 
320 1 -0.000317859 0.000236756 0.000797765 5e-05 0.0526095 -0.0373044 -0.0853618 0 0 -5.1365e-09 
108 1 -0.000125382 0.000243446 0.000626633 5e-05 0.0311569 -0.0112261 -0.159361 0 0 -5.1365e-09 
560 1 -0.000131931 0.000328873 0.000752714 5e-05 -0.0244313 -0.0147841 -0.126751 0 0 -5.1365e-09 
384 1 6.1668e-05 0.000344793 0.000686615 5e-05 0.0111065 -0.034838 -0.156536 0 0 -5.1365e-09 
441 1 0.000260521 0.000283278 0.00072234 5e-05 -0.0737081 -0.0420272 -0.0781911 0 0 -5.1365e-09 
42 1 6.50138e-05 -0.000435634 0.000946231 5e-05 0.0148349 0.0488277 -0.0896152 0 0 -5.1365e-09 
168 1 -0.000192927 -0.00027776 0.000849893 5e-05 0.0695538 -0.00545013 -0.0883483 0 0 -5.1365e-09 
291 1 0.000243311 -0.000352904 0.000850977 5e-05 0.0249656 0.0168862 -0.099144 0 0 -5.1365e-09 
141 1 0.000240546 -0.000207016 0.000785347 5e-05 -0.0337187 0.0246822 -0.15675 0 0 -5.1365e-09 
342 1 -0.000359193 -0.00020919 0.000956845 5e-05 0.0324615 -0.0156509 -0.120285 0 0 -5.1365e-09 
160 1 -0.000245696 -0.000188096 0.000877254 5e-05 0.0350306 -0.0235652 -0.131319 0 0 -5.1365e-09 
281 1 -0.000113608 -0.000229759 0.000927904 5e-05 0.0426414 -0.0222216 -0.119953 0 0 -5.1365e-09 
305 1 -1.09803e-05 -0.000128377 0.00083929 5e-05 -0.0488489 0.0374561 -0.109614 0 0 -5.1365e-09 
448 1 0.000138402 -0.000120305 0.000809814 5e-05 -0.0471916 0.0187492 -0.143655 0 0 -5.1365e-09 
274 1 0.000343605 -7.83508e-05 0.00079403 5e-05 -0.0158298 0.0198638 -0.125419 0 0 -5.1365e-09 
538 1 0.000271634 -0.000196855 0.000942246 5e-05 -0.0166008 0.016477 -0.119594 0 0 -5.1365e-09 
35 1 0.000377109 -0.000206638 0.000887701 5e-05 -0.0566719 0.033997 -0.0817017 0 0 -5.1365e-09 
447 1 0.000434587 -8.20584e-05 0.000929987 5e-05 -0.045429 0.0131903 -0.0798674 0 0 -5.1365e-09 
387 1 -0.000414153 -9.95358e-05 0.000854069 5e-05 0.0322677 -0.0281756 -0.111211 0 0 -5.1365e-09 
26 1 -0.000468933 -8.89852e-06 0.000974303 5e-05 0.0169515 -0.0106446 -0.101406 0 0 -5.1365e-09 
75 1 -0.000317806 -6.62942e-05 0.000875749 5e-05 0.0305145 -0.0203065 -0.131669 0 0 -5.1365e-09 
6 1 -0.00034318 2.71626e-05 0.00091102 5e-05 0.0338104 -0.0431094 -0.15387 0 0 -5.1365e-09 
142 1 -0.000190243 1.20899e-05 0.000864447 5e-05 0.0289615 -0.0109281 -0.143569 0 0 -5.1365e-09 
507 1 -1.99319e-05 1.83934e-05 0.000898279 5e-05 0.0561152 -0.0364735 -0.133578 0 0 -5.1365e-09 
170 1 0.000231511 -3.82071e-05 0.000854788 5e-05 -0.022811 0.00170659 -0.152102 0 0 -5.1365e-09 
340 1 0.000340165 8.16463e-06 0.000892849 5e-05 -0.0406654 0.0109062 -0.137457 0 0 -5.1365e-09 
226 1 -0.000424865 0.000117629 0.000940326 5e-05 0.0371212 -0.0198187 -0.0799761 0 0 -5.1365e-09 
324 1 -0.00023988 0.000130948 0.00087445 5e-05 0.0210102 -0.0401407 -0.130199 0 0 -5.1365e-09 
454 1 0.000174116 0.000102858 0.000804083 5e-05 0.0117122 0.00758885 -0.102843 0 0 -5.1365e-09 
256 1 0.000160671 0.00021292 0.000934694 5e-05 -0.0478942 0.0332841 -0.114474 0 0 -5.1365e-09 
287 1 0.000307216 0.000104783 0.000888751 5e-05 -0.0264145 0.0122707 -0.103284 0 0 -5.1365e-09 
497 1 0.000298556 0.000180966 0.000806834 5e-05 -0.0446724 0.00518148 -0.126161 0 0 -5.1365e-09 
346 1 0.000295548 0.000196126 0.000948314 5e-05 -0.0301393 0.0177795 -0.126736 0 0 -5.1365e-09 
84 1 0.000397807 0.000152473 0.000943744 5e-05 -0.0292768 0.0271827 -0.107139 0 0 -5.1365e-09 
224 1 -0.000372671 0.000247786 0.000923127 5e-05 0.0267821 -0.0156023 -0.102403 0 0 -5.1365e-09 
389 1 -0.000255901 0.000233669 0.000879605 5e-05 0.0366239 -0.00145775 -0.133861 0 0 -5.1365e-09 
74 1 0.000257885 0.000313809 0.000888751 5e-05 -0.0491351 0.014835 -0.104124 0 0 -5.1365e-09 
476 1 0.000124904 0.000396023 0.000862817 5e-05 0.00648509 -0.023416 -0.0754603 0 0 -5.1365e-09 
317 1 6.92583e-05 -0.000356716 0.00109863 5e-05 0.00802177 0.0463019 -0.088159 0 0 -5.1365e-09 
107 1 0.000175375 -0.000427716 0.00113471 5e-05 -0.024614 0.0138561 -0.0761862 0 0 -5.1365e-09 
296 1 0.000279647 -0.000362205 0.00111809 5e-05 -0.0121306 0.0397209 -0.0568214 0 0 -5.1365e-09 
227 1 -0.000334085 -0.000266742 0.00110701 5e-05 0.0267836 0.00715341 -0.0926174 0 0 -5.1365e-09 
3 1 -1.77173e-05 -0.000293538 0.00107953 5e-05 -0.00102892 0.0587828 -0.101603 0 0 -5.1365e-09 
159 1 0.000324258 -0.00029921 0.000979242 5e-05 -0.0202491 0.00988469 -0.111547 0 0 -5.1365e-09 
429 1 -0.00045066 -0.000123716 0.00102538 5e-05 0.0317411 -0.0170593 -0.104499 0 0 -5.1365e-09 
337 1 -0.000456966 -0.000212342 0.00111758 5e-05 0.027308 0.00323108 -0.103537 0 0 -5.1365e-09 
51 1 -0.000182724 -0.000163972 0.000967205 5e-05 0.0536173 0.00360564 -0.131661 0 0 -5.1365e-09 
165 1 -0.000340423 -0.000168398 0.00106728 5e-05 0.0473381 0.000856908 -0.084336 0 0 -5.1365e-09 
496 1 0.000379853 -0.000161324 0.000989812 5e-05 -0.0115798 0.015764 -0.124542 0 0 -5.1365e-09 
258 1 0.000469825 -0.000171871 0.00114091 5e-05 -0.023577 0.00886981 -0.0579036 0 0 -5.1365e-09 
45 1 -0.000387603 -4.55618e-05 0.0010518 5e-05 0.0330336 -0.0181183 -0.0925627 0 0 -5.1365e-09 
438 1 -0.000470145 -8.31523e-06 0.00110317 5e-05 0.0310574 0.000150426 -0.107186 0 0 -5.1365e-09 
214 1 -0.000322166 3.85807e-05 0.00105999 5e-05 0.0199876 -0.00754605 -0.133941 0 0 -5.1365e-09 
455 1 -0.000156276 -8.98333e-05 0.00110051 5e-05 0.0145165 -0.0156057 -0.109383 0 0 -5.1365e-09 
504 1 0.000169872 9.18786e-05 0.000992699 5e-05 -0.0375333 0.0394543 -0.129144 0 0 -5.1365e-09 
34 1 0.000307664 1.08728e-05 0.00108295 5e-05 -0.0230299 0.0440642 -0.113121 0 0 -5.1365e-09 
330 1 0.000371611 -2.95308e-05 0.000996841 5e-05 -0.0409141 0.0200946 -0.107952 0 0 -5.1365e-09 
266 1 0.000474251 3.31727e-05 0.00101697 5e-05 -0.0512669 0.0114024 -0.0788483 0 0 -5.1365e-09 
109 1 -0.000352558 0.000138894 0.00108908 5e-05 0.0372671 -0.00580064 -0.123519 0 0 -5.1365e-09 
95 1 -0.000316209 0.000117036 0.000962854 5e-05 0.0448841 -0.0533203 -0.128836 0 0 -5.1365e-09 
347 1 -0.000225264 0.000124138 0.00105814 5e-05 0.0223649 0.00709058 -0.118691 0 0 -5.1365e-09 
228 1 -2.10881e-05 8.54466e-05 0.000986902 5e-05 -0.0439509 -0.0505929 -0.0979802 0 0 -5.1365e-09 
225 1 0.00020022 0.000183658 0.00106971 5e-05 -0.0325784 0.0113957 -0.110183 0 0 -5.1365e-09 
282 1 0.000424962 0.000192676 0.00108867 5e-05 -0.0343363 0.0197619 -0.0809783 0 0 -5.1365e-09 
479 1 0.000351821 0.000108725 0.00104405 5e-05 -0.0449606 0.00529612 -0.13227 0 0 -5.1365e-09 
11 1 0.000475626 0.000100084 0.00112755 5e-05 0.00350861 0.0218709 -0.085971 0 0 -5.1365e-09 
140 1 3.6229e-05 0.00033156 0.00100871 5e-05 -0.0180171 -0.0287945 -0.113118 0 0 -5.1365e-09 
244 1 0.000343604 0.000287167 0.000982031 5e-05 -0.0366452 0.0185326 -0.126587 0 0 -5.1365e-09 
174 1 -0.000297587 0.000316408 0.00112852 5e-05 -0.0234413 -0.0815588 -0.0468607 0 0 -5.1365e-09 
502 1 5.91519e-05 0.000468691 0.00103505 5e-05 -0.00553477 -0.0287003 -0.0989404 0 0 -5.1365e-09 
181 1 -2.68763e-05 0.000338996 0.00109082 5e-05 -0.00806372 -0.0465356 -0.107236 0 0 -5.1365e-09 
218 1 0.000257095 0.000426156 0.00111582 5e-05 -0.0281257 0.0380806 -0.100095 0 0 -5.1365e-09 
113 1 -0.000261979 -0.000418209 0.00120187 5e-05 0.0302533 -0.00214568 -0.0821011 0 0 -5.1365e-09 
68 1 -0.000328584 -0.000425695 0.001282 5e-05 0.0216731 -0.00854793 -0.0843745 0 0 -5.1365e-09 
9 1 -6.42304e-05 -0.000481498 0.00118431 5e-05 0.00678737 0.0247327 -0.0741121 0 0 -5.1365e-09 
536 1 5.7571e-05 -0.000405937 0.00120177 5e-05 -0.000629254 0.0197803 -0.091843 0 0 -5.1365e-09 
514 1 -0.000440135 -0.000273124 0.00119796 5e-05 0.0278035 -0.0166954 -0.0977491 0 0 -5.1365e-09 
29 1 -0.000398916 -0.00034048 0.00128047 5e-05 -0.00330018 -0.00721834 -0.0707637 0 0 -5.1365e-09 
400 1 -0.000303054 -0.000295964 0.00127197 5e-05 0.00559576 -0.0222436 -0.0928536 0 0 -5.1365e-09 
316 1 0.000302651 -0.000275508 0.00128787 5e-05 -0.0208822 0.0389342 -0.0560914 0 0 -5.1365e-09 
166 1 0.000458026 -0.000286134 0.00132286 5e-05 -0.00114836 0.0210249 -0.0651589 0 0 -5.1365e-09 
355 1 -0.000497376 -9.77219e-05 0.00119481 5e-05 0.0294099 -0.0180172 -0.0909512 0 0 -5.1365e-09 
103 1 -0.000404485 -0.000139842 0.00116275 5e-05 0.0210057 -0.0125406 -0.116666 0 0 -5.1365e-09 
83 1 -0.000491719 -0.000159997 0.00130268 5e-05 0.0164698 0.0165946 -0.0826905 0 0 -5.1365e-09 
191 1 -0.000329343 -0.000210444 0.00120119 5e-05 0.0137233 -0.0140326 -0.111053 0 0 -5.1365e-09 
204 1 -0.000225552 -0.00017329 0.00117686 5e-05 0.0256089 -0.0308762 -0.106638 0 0 -5.1365e-09 
155 1 0.00022155 -8.8699e-05 0.0011796 5e-05 -0.0602652 0.0143934 -0.0886151 0 0 -5.1365e-09 
325 1 0.000322923 -8.51092e-05 0.00113819 5e-05 -0.0386831 0.00476019 -0.10373 0 0 -5.1365e-09 
467 1 0.000365359 -8.77249e-05 0.00124193 5e-05 -0.0168651 0.00205221 -0.0881269 0 0 -5.1365e-09 
215 1 0.000415414 -0.000167173 0.00128487 5e-05 -0.0289344 -0.00145928 -0.0632138 0 0 -5.1365e-09 
27 1 0.000510381 -9.81283e-05 0.00131779 5e-05 -0.0334667 0.00230054 -0.0566389 0 0 -5.1365e-09 
111 1 -0.000528535 -1.6729e-05 0.00126571 5e-05 0.0302627 -0.0094853 -0.0721512 0 0 -5.1365e-09 
506 1 -0.000413217 8.41487e-07 0.00119987 5e-05 0.0442443 -0.00214625 -0.0913049 0 0 -5.1365e-09 
312 1 -0.000300982 -0.000104441 0.00117684 5e-05 0.0192516 -0.0318513 -0.108663 0 0 -5.1365e-09 
431 1 -0.000212412 -1.87421e-05 0.00119564 5e-05 0.0324941 -0.0103705 -0.0978268 0 0 -5.1365e-09 
329 1 -0.000313078 -2.89009e-05 0.00124494 5e-05 0.0218989 -0.0230309 -0.113912 0 0 -5.1365e-09 
82 1 3.03818e-05 -2.14116e-06 0.00129553 5e-05 -0.0582155 -0.0180804 -0.0747675 0 0 -5.1365e-09 
304 1 0.000313466 3.95947e-05 0.00122451 5e-05 -0.00768493 0.00314595 -0.103768 0 0 -5.1365e-09 
100 1 0.000390788 -1.42221e-05 0.00117419 5e-05 -0.0313662 0.0209782 -0.137865 0 0 -5.1365e-09 
208 1 0.000509549 -6.6127e-08 0.00116427 5e-05 -0.0206083 0.00261306 -0.086861 0 0 -5.1365e-09 
194 1 0.000528387 1.34711e-05 0.00126991 5e-05 0.010617 0.00326108 -0.0952553 0 0 -5.1365e-09 
339 1 -0.000520819 0.000102733 0.00128588 5e-05 0.019498 -0.0127422 -0.0685148 0 0 -5.1365e-09 
351 1 -0.000489287 0.000107929 0.00118227 5e-05 0.0287399 -0.00264132 -0.0721541 0 0 -5.1365e-09 
297 1 -0.000404598 0.0002216 0.00115384 5e-05 0.0118294 -0.00639474 -0.104617 0 0 -5.1365e-09 
179 1 -0.000423104 5.93019e-05 0.00129214 5e-05 -0.00567097 -0.0237696 -0.088527 0 0 -5.1365e-09 
547 1 0.000253519 0.000156163 0.00120032 5e-05 -0.0420169 0.0252196 -0.0915512 0 0 -5.1365e-09 
135 1 0.00033828 0.000220033 0.00115457 5e-05 -0.0226564 -0.0030169 -0.086376 0 0 -5.1365e-09 
371 1 0.000292473 0.000205266 0.00130698 5e-05 -0.0298536 0.00115212 -0.0783594 0 0 -5.1365e-09 
175 1 0.00048325 0.000156429 0.00122671 5e-05 -0.0386304 0.00345991 -0.0723524 0 0 -5.1365e-09 
195 1 0.000413453 8.03611e-05 0.00121792 5e-05 -0.049585 0.00514986 -0.0717473 0 0 -5.1365e-09 
408 1 -0.000417534 0.000312404 0.0012735 5e-05 0.00855656 -0.0332929 -0.0681992 0 0 -5.1365e-09 
413 1 0.000306036 0.000329443 0.00113964 5e-05 -0.0354331 0.0223476 -0.0983909 0 0 -5.1365e-09 
290 1 0.000397587 0.000339346 0.00126682 5e-05 -0.0175876 -0.020861 -0.0680066 0 0 -5.1365e-09 
444 1 0.000439346 0.000248288 0.00127122 5e-05 -0.0158369 0.0132846 -0.0798146 0 0 -5.1365e-09 
394 1 -0.000217541 0.000475889 0.00119391 5e-05 0.0127513 -0.0575684 -0.0482358 0 0 -5.1365e-09 
88 1 -0.000179166 0.000493764 0.00130591 5e-05 -0.0400575 -0.0149768 -0.0822642 0 0 -5.1365e-09 
548 1 -4.27109e-05 0.000523339 0.0012265 5e-05 -0.00349288 -0.0205735 -0.0454117 0 0 -5.1365e-09 
494 1 -2.29799e-05 0.000475504 0.00132443 5e-05 -0.0117463 -0.039892 -0.0529707 0 0 -5.1365e-09 
207 1 -1.58748e-05 -0.000565182 0.00139796 5e-05 0.032429 0.00913381 -0.0606389 0 0 -5.1365e-09 
553 1 0.000135021 -0.00053001 0.00139576 5e-05 0.0359975 0.0263058 -0.0558188 0 0 -5.1365e-09 
373 1 0.000179421 -0.000563108 0.00150104 5e-05 0.0303436 -0.00439654 -0.0206965 0 0 -5.1365e-09 
516 1 -0.000349672 -0.000454536 0.00146142 5e-05 0.0146665 0.0132945 -0.0570267 0 0 -5.1365e-09 
67 1 -0.000229949 -0.000535963 0.00150427 5e-05 0.0191025 -0.00784552 -0.0318272 0 0 -5.1365e-09 
283 1 -0.000165759 -0.000507183 0.00142245 5e-05 0.00775486 0.00975003 -0.0414105 0 0 -5.1365e-09 
382 1 0.000116005 -0.000414998 0.00136615 5e-05 0.00128526 0.000876175 -0.0648109 0 0 -5.1365e-09 
188 1 0.000218931 -0.000478565 0.00143262 5e-05 0.0125662 -0.00103992 -0.0557338 0 0 -5.1365e-09 
298 1 0.000249159 -0.000491812 0.00133547 5e-05 0.0170261 0.0235167 -0.0582961 0 0 -5.1365e-09 
118 1 0.000342472 -0.000466041 0.00145239 5e-05 -0.000645608 0.0210252 -0.0360759 -1.76524e-07 1.66514e-07 1.7794e-07 
255 1 0.000432745 -0.000380784 0.00154246 5e-05 0.0108308 0.0166827 0.00428917 0 0 -5.1365e-09 
430 1 -0.000525797 -0.000232914 0.00144187 5e-05 0.0151893 0.0143756 -0.0617946 0 0 -5.1365e-09 
237 1 -0.000473134 -0.00028378 0.00135341 5e-05 0.0117522 0.0158011 -0.0654754 0 0 -5.1365e-09 
336 1 -0.000392566 -0.000356341 0.00139545 5e-05 0.00723896 0.010232 -0.0872559 0 0 -5.1365e-09 
368 1 -0.000282832 -0.000335104 0.00143938 5e-05 0.0211003 0.00820945 -0.067083 0 0 -5.1365e-09 
99 1 -0.000190757 -0.000326301 0.00152227 5e-05 -0.0128842 -0.00605163 -0.0184243 0 0 -5.1365e-09 
131 1 0.000164101 -0.00033448 0.00148546 5e-05 0.0156724 0.00181599 -0.0463059 0 0 -5.1365e-09 
236 1 0.000271222 -0.00039673 0.00147407 5e-05 0.0390717 -0.00178382 -0.0435903 0 0 -5.1365e-09 
31 1 -0.000561504 -0.000108075 0.00146331 5e-05 0.00545932 -0.0246515 -0.0793344 0 0 -5.1365e-09 
295 1 -0.000392103 -0.000227635 0.00132405 5e-05 0.0302682 -0.00589643 -0.0818799 0 0 -5.1365e-09 
263 1 -0.000432182 -0.000162902 0.00140146 5e-05 0.0144026 -0.0526615 -0.0938539 0 0 -5.1365e-09 
397 1 -0.000382089 -0.000110514 0.00129496 5e-05 0.0054419 -0.0207323 -0.0992507 0 0 -5.1365e-09 
343 1 -0.00027176 -0.000174826 0.00134327 5e-05 0.0141031 -0.00646645 -0.0846946 0 0 -5.1365e-09 
80 1 -0.000234984 -8.88448e-05 0.00145399 5e-05 -0.00177714 0.0203221 -0.0559937 0 0 -5.1365e-09 
43 1 -0.000185758 -0.000218801 0.00147041 5e-05 0.0102926 -0.00393755 -0.0455956 0 0 -5.1365e-09 
233 1 0.000412395 -9.47845e-05 0.00136729 5e-05 -0.0236706 0.0122594 -0.0844627 0 0 -5.1365e-09 
294 1 0.000503221 -0.000136446 0.00141967 5e-05 -0.0142544 0.00871204 -0.0396942 0 0 -5.1365e-09 
46 1 -0.000544527 -8.00316e-05 0.00136538 5e-05 0.00881871 -0.0240198 -0.0544284 0 0 -5.1365e-09 
184 1 -0.000559059 2.54737e-05 0.00136611 5e-05 -0.0103185 -0.0106998 -0.0664232 0 0 -5.1365e-09 
338 1 -0.000586669 -8.35911e-06 0.00150031 5e-05 0.0544363 -0.0248146 -0.0037226 0 0 -5.1365e-09 
532 1 -0.000446838 -3.08719e-05 0.00133902 5e-05 0.0313406 -0.0131681 -0.0853412 0 0 -5.1365e-09 
334 1 -0.000443359 -6.52819e-05 0.0014588 5e-05 -0.00950273 -0.0226737 -0.0644278 0 0 -5.1365e-09 
360 1 -0.000340185 -3.00297e-05 0.0014158 5e-05 -0.0128993 -0.00131219 -0.0738229 0 0 -5.1365e-09 
512 1 0.000394216 -6.92578e-06 0.00131847 5e-05 0.00191048 -0.00211754 -0.0999988 0 0 -5.1365e-09 
465 1 0.000548053 4.99319e-05 0.00137213 5e-05 0.015562 -0.00815793 -0.0925179 0 0 -5.1365e-09 
345 1 0.000383537 3.2341e-05 0.00148332 5e-05 -0.00911951 -0.0282268 -0.0595082 0 0 -5.1365e-09 
407 1 0.000583698 2.29593e-05 0.00149136 5e-05 0.0110116 0.0125861 -0.073138 0 0 -5.1365e-09 
267 1 -0.000520203 0.000170466 0.00136654 5e-05 -0.0165915 0.00631798 -0.0734624 0 0 -5.1365e-09 
76 1 -0.000468838 4.12321e-05 0.00148119 5e-05 0.0793711 0.0174413 -0.0375931 0 0 -5.1365e-09 
205 1 0.000344226 0.000106631 0.00132375 5e-05 -0.0196007 0.00747414 -0.103627 0 0 -5.1365e-09 
272 1 0.000251498 0.000110842 0.00139616 5e-05 -0.00653822 0.0048561 -0.0695944 0 0 -5.1365e-09 
515 1 0.000388914 0.000184211 0.00145796 5e-05 0.0143422 0.00714676 -0.0780309 0 0 -5.1365e-09 
21 1 0.000455473 0.000146544 0.00136006 5e-05 0.0147352 0.00136414 -0.0946358 0 0 -5.1365e-09 
44 1 0.000525684 0.000205943 0.00142 5e-05 -0.0270446 -0.0011264 -0.0544728 0 0 -5.1365e-09 
210 1 -0.000486129 0.000261309 0.00140166 5e-05 0.0131574 -0.00424677 -0.0589767 0 0 -5.1365e-09 
280 1 -0.000252876 0.000372486 0.00149616 5e-05 -0.00459897 0.0316759 -0.0218781 0 0 -5.1365e-09 
273 1 -0.000252565 0.000394921 0.00137902 5e-05 -0.0607363 0.0127432 -0.053857 0 0 -5.1365e-09 
134 1 0.000188343 0.000324126 0.00145531 5e-05 -0.0257043 -0.0110801 -0.0568816 0 0 -5.1365e-09 
72 1 0.000339557 0.000269781 0.00139288 5e-05 -0.00161096 -0.0137007 -0.0694701 0 0 -5.1365e-09 
66 1 0.000256492 0.000248836 0.00147265 5e-05 -0.00752683 0.016537 -0.0664821 0 0 -5.1365e-09 
71 1 0.000334172 0.000375914 0.00146727 5e-05 -0.0137243 0.0183319 -0.0601143 0 0 -5.1365e-09 
419 1 0.000446825 0.000279275 0.00137293 5e-05 -0.0144105 -0.0211521 -0.063531 0 0 -5.1365e-09 
418 1 0.000436357 0.000374174 0.00146572 5e-05 -0.0112187 -0.00987752 -0.048787 0 0 -5.1365e-09 
16 1 0.000486315 0.000285987 0.00148393 5e-05 -0.0146986 -0.00501087 -0.0556847 0 0 -5.1365e-09 
505 1 -0.000441932 0.000392879 0.00148319 5e-05 5.8956e-05 3.59424e-05 -0.000131986 4.64578e-08 2.78081e-08 -1.04507e-07 
223 1 -0.000329264 0.000462371 0.00146067 5e-05 -0.00954872 -0.0231844 -0.0359686 0 0 -5.1365e-09 
435 1 -0.000225397 0.000492047 0.00140907 5e-05 -0.00983544 -0.00463264 -0.0626341 0 0 -5.1365e-09 
56 1 -0.000176134 0.000443117 0.0015046 5e-05 -0.0259928 -0.00418819 -0.038324 0 0 -5.1365e-09 
450 1 0.000240343 0.000423554 0.00142716 5e-05 1.91217e-05 0.00619952 -0.0589675 0 0 -5.1365e-09 
391 1 0.000371764 0.000404974 0.00134967 5e-05 -0.0148582 -0.00488452 -0.0625117 0 0 -5.1365e-09 
173 1 -0.000158611 0.000559918 0.00147284 5e-05 -0.00892749 -0.0108068 -0.0445781 0 0 -5.1365e-09 
106 1 0.0001099 0.000561657 0.00151594 5e-05 -0.0180315 0.0155253 -0.0264865 0 0 -5.1365e-09 
556 1 -0.000153393 -0.000594511 0.00161003 5e-05 0.00565853 0.00141889 -0.00666489 0 0 -5.1365e-09 
200 1 -5.46121e-05 -0.000603505 0.00163681 5e-05 0.00931677 0.000755801 -0.0127659 0 0 -5.1365e-09 
569 1 4.82547e-05 -0.00061408 0.00161269 5e-05 0.021192 0.00030693 0.00689399 0 0 -5.1365e-09 
375 1 7.65651e-06 -0.000538899 0.00155255 5e-05 -0.000650331 0.00844369 -0.0172066 0 0 -5.1365e-09 
341 1 0.000231394 -0.000576383 0.00166744 5e-05 0.0144524 -0.00544556 -0.0206242 0 0 -5.1365e-09 
452 1 0.0001284 -0.000552358 0.00165198 5e-05 0.0340705 -0.00430084 -0.0201293 0 0 -5.1365e-09 
545 1 0.000268477 -0.00053804 0.00154074 5e-05 0.00871458 0.00464854 -0.0435957 0 0 -5.1365e-09 
399 1 -0.000431682 -0.000431497 0.00159439 5e-05 0.0031388 0.00329741 -0.0496785 0 0 -5.1365e-09 
112 1 -0.000340082 -0.000370411 0.00151739 5e-05 -0.00340735 0.015411 -0.0659475 0 0 -5.1365e-09 
335 1 -0.000178147 -0.000458252 0.00154423 5e-05 -0.00335052 0.00342624 -0.0134579 0 0 -5.1365e-09 
85 1 -0.000206786 -0.000511382 0.00162642 5e-05 0.00749069 0.0119584 -0.0204983 0 0 -5.1365e-09 
284 1 -9.41826e-05 -0.000513045 0.00161769 5e-05 0.0101199 -0.00360613 0.00395544 0 0 -5.1365e-09 
167 1 -0.00016176 -0.000402653 0.00163419 5e-05 -0.00927072 0.00446006 0.00314251 0 0 -5.1365e-09 
523 1 -4.61156e-05 -0.000453236 0.00155096 5e-05 0.0079152 -0.00407124 0.00120639 0 0 -5.1365e-09 
4 1 -5.06065e-05 -0.000423959 0.00164926 5e-05 -0.0097736 -0.0105694 -0.000707217 0 0 -5.1365e-09 
41 1 6.43964e-05 -0.000446751 0.00164223 5e-05 0.00584354 -0.00624237 0.00973184 0 0 -5.1365e-09 
554 1 7.26123e-05 -0.000399738 0.00155108 5e-05 0.00919633 0.00328559 0.0151949 0 0 -5.1365e-09 
257 1 -1.12404e-05 -0.000518862 0.00169114 5e-05 0.0296587 -0.00591428 -0.000701653 0 0 -5.1365e-09 
14 1 0.00011247 -0.000496111 0.00154817 5e-05 0.00559458 -0.000292691 -0.0282759 0 0 -5.1365e-09 
203 1 0.000158511 -0.000388318 0.0016389 5e-05 0.0268054 0.0183078 -0.0266851 0 0 -5.1365e-09 
511 1 0.000213287 -0.000451454 0.00157552 5e-05 -0.0131885 0.015847 -0.0451496 0 0 -5.1365e-09 
513 1 0.000319953 -0.000518106 0.00163065 5e-05 -0.00292151 0.00636644 -0.0287402 0 0 -5.1365e-09 
361 1 0.000297483 -0.000408533 0.00162719 5e-05 0.00876729 0.00178013 -0.0204962 0 0 -5.1365e-09 
102 1 0.000397276 -0.000403576 0.00163507 5e-05 -0.000456987 0.0123888 -0.0145498 0 0 -5.1365e-09 
357 1 -0.000562064 -0.000276113 0.00164538 5e-05 0.0298528 0.00759626 -0.0331006 0 0 -5.1365e-09 
417 1 -0.000472773 -0.000321363 0.00149678 5e-05 0.0332618 0.00459609 -0.0308922 0 0 -5.1365e-09 
396 1 -0.00047991 -0.000334262 0.00163328 5e-05 0.00521649 -0.00642899 -0.0431634 0 0 -5.1365e-09 
18 1 -0.000351116 -0.000252357 0.00149706 5e-05 0.00337126 0.00344595 -0.0621462 0 0 -5.1365e-09 