ITEM: TIMESTEP
17000
ITEM: NUMBER OF ATOMS
571
ITEM: BOX BOUNDS ff ff ff
-0.001 0.001
-0.001 0.001
0 0.004
ITEM: ATOMS id type x y z radius vx vy vz fx fy fz 
209 1 -0.000212366 3.54015e-05 0.00045121 5e-05 0.0181101 -0.0378152 -0.204976 0 0 -5.1365e-09 
252 1 -0.000325247 0.000151365 0.000561361 5e-05 0.0355051 -0.021217 -0.165911 0 0 -5.1365e-09 
551 1 -5.16521e-06 -0.000319745 0.000715417 5e-05 -0.0264572 0.0229255 -0.085555 0 0 -5.1365e-09 
242 1 1.61721e-06 -0.000197776 0.00067605 5e-05 -0.00793612 0.0877651 -0.195786 0 0 -5.1365e-09 
328 1 0.00012445 -0.000363306 0.000759728 5e-05 -0.0360254 0.062724 -0.078609 0 0 -5.1365e-09 
526 1 0.00025113 -0.000260893 0.000658486 5e-05 -0.0349341 0.0214188 -0.139718 0 0 -5.1365e-09 
250 1 4.58101e-05 -0.000166227 0.000772448 5e-05 -0.01272 0.00699488 -0.138963 0 0 -5.1365e-09 
318 1 0.000254644 -0.000152312 0.000726465 5e-05 -0.0586855 0.039536 -0.127408 0 0 -5.1365e-09 
468 1 -0.000393884 -3.31099e-05 0.000752659 5e-05 0.0516682 -0.0156672 -0.0935597 0 0 -5.1365e-09 
182 1 -0.000258201 -1.84227e-06 0.000659162 5e-05 0.060596 -0.0419603 -0.191076 0 0 -5.1365e-09 
490 1 0.000317929 -4.41088e-05 0.000722576 5e-05 -0.0512664 0.0141768 -0.140905 0 0 -5.1365e-09 
186 1 0.000345118 5.50918e-05 0.000752533 5e-05 -0.0637931 0.000700185 -0.115073 0 0 -5.1365e-09 
243 1 -0.00038978 9.347e-05 0.0007791 5e-05 0.0382087 -0.0310946 -0.124401 0 0 -5.1365e-09 
308 1 -0.000330677 0.000186376 0.000699089 5e-05 -0.0144846 -0.0426991 -0.155422 0 0 -5.1365e-09 
326 1 -0.000262076 0.000107832 0.000777861 5e-05 0.0568163 -0.0179503 -0.154131 0 0 -5.1365e-09 
353 1 -0.000153409 0.000203242 0.000636426 5e-05 0.000644034 -0.000277811 -0.167069 0 0 -5.1365e-09 
235 1 -0.000141947 3.78886e-05 0.000764483 5e-05 0.0596464 -0.0635409 -0.148421 0 0 -5.1365e-09 
157 1 -0.000135197 0.000172372 0.000735277 5e-05 0.0353351 -0.0237009 -0.176235 0 0 -5.1365e-09 
425 1 -0.000111646 0.000340988 0.000765109 5e-05 0.0307473 -0.0265059 -0.14821 0 0 -5.1365e-09 
529 1 0.000115667 0.000244141 0.000719854 5e-05 -0.0383846 -0.0740935 -0.0971853 0 0 -5.1365e-09 
89 1 -4.25808e-05 -0.000392657 0.000845927 5e-05 0.0584456 0.0254538 -0.141635 0 0 -5.1365e-09 
453 1 -0.000152355 -0.000337858 0.0008232 5e-05 0.0382751 0.0272204 -0.117302 0 0 -5.1365e-09 
73 1 0.00021522 -0.000354739 0.000815911 5e-05 -0.0176359 0.04965 -0.0850357 0 0 -5.1365e-09 
23 1 4.71873e-05 -0.000359036 0.000945553 5e-05 -0.0615316 0.0088863 -0.116768 0 0 -5.1365e-09 
251 1 5.97346e-05 -0.000255914 0.000946649 5e-05 -0.0585119 -0.000349832 -0.135161 0 0 -5.1365e-09 
299 1 0.000246907 -0.000220884 0.000935281 5e-05 -0.0311492 0.0147657 -0.118975 0 0 -5.1365e-09 
222 1 0.000360958 -0.000236048 0.000945744 5e-05 -0.0133679 0.0199325 -0.108357 0 0 -5.1365e-09 
322 1 0.000177023 -0.000209894 0.000767072 5e-05 -0.0291906 0.0184057 -0.16633 0 0 -5.1365e-09 
36 1 0.000107326 -6.19136e-05 0.000792817 5e-05 -0.0305416 0.0856669 -0.140976 0 0 -5.1365e-09 
199 1 0.000263226 -0.000178754 0.000826823 5e-05 -0.0416497 0.0276804 -0.150373 0 0 -5.1365e-09 
508 1 0.000270798 -8.87581e-05 0.000887429 5e-05 -0.0416663 0.0449438 -0.135197 0 0 -5.1365e-09 
24 1 0.000373301 -0.000147851 0.000841045 5e-05 -0.054135 0.0213206 -0.100141 0 0 -5.1365e-09 
367 1 -0.00044595 -1.88682e-05 0.000911197 5e-05 -0.000795337 -0.0508734 -0.143907 0 0 -5.1365e-09 
285 1 -0.000237676 -1.34793e-05 0.00088382 5e-05 0.0692519 -0.0312145 -0.141276 0 0 -5.1365e-09 
132 1 0.000317465 -9.95614e-06 0.000932396 5e-05 -0.0370291 0.0410418 -0.114898 0 0 -5.1365e-09 
350 1 0.000434045 -3.4328e-05 0.000910846 5e-05 0.0160155 0.0263375 -0.100893 0 0 -5.1365e-09 
509 1 -0.000369351 0.000106847 0.000914522 5e-05 0.0588217 -0.0405592 -0.0856886 0 0 -5.1365e-09 
482 1 -0.000407462 0.000190487 0.000965749 5e-05 0.0421089 -0.0332997 -0.0897768 0 0 -5.1365e-09 
485 1 -0.000245064 0.000101186 0.000955712 5e-05 0.0284508 -0.026802 -0.114565 0 0 -5.1365e-09 
471 1 -0.000314383 0.000185311 0.000848294 5e-05 0.0254408 -0.0403433 -0.150055 0 0 -5.1365e-09 
475 1 6.49161e-05 0.000186634 0.000943001 5e-05 0.0861921 -0.0290521 -0.110335 0 0 -5.1365e-09 
128 1 -0.000272739 0.000295147 0.000873138 5e-05 0.018486 -0.0322747 -0.117901 0 0 -5.1365e-09 
183 1 -0.0001235 0.000211221 0.000886446 5e-05 0.0770774 -0.0299861 -0.155373 0 0 -5.1365e-09 
57 1 0.000139065 0.000253653 0.000875312 5e-05 -0.0395586 -0.0222407 -0.138127 0 0 -5.1365e-09 
493 1 0.000320298 0.000226809 0.000932604 5e-05 -0.0215535 -0.0276797 -0.118772 0 0 -5.1365e-09 
422 1 0.000131079 0.00038875 0.000819801 5e-05 -0.0471263 -0.0204563 -0.125545 0 0 -5.1365e-09 
489 1 -4.09508e-05 -0.000476811 0.00109292 5e-05 0.0152168 -0.00448106 -0.125247 0 0 -5.1365e-09 
196 1 6.55609e-05 -0.000487303 0.00110322 5e-05 0.0528331 0.0416524 -0.0750297 0 0 -5.1365e-09 
528 1 0.000169149 -0.000446111 0.00102282 5e-05 -0.0330969 0.0253678 -0.0989579 0 0 -5.1365e-09 
401 1 3.44197e-05 -0.000368205 0.00112433 5e-05 -0.04507 0.0396533 -0.0719158 0 0 -5.1365e-09 
402 1 0.000279736 -0.000385739 0.00110356 5e-05 -0.0159068 0.0109188 -0.11637 0 0 -5.1365e-09 
379 1 -0.000235232 -0.000310782 0.000990916 5e-05 0.0352849 0.0118298 -0.109932 0 0 -5.1365e-09 
541 1 0.000157782 -0.000287903 0.00105106 5e-05 -0.0675318 0.0262657 -0.1107 0 0 -5.1365e-09 
558 1 0.000240088 -0.000360376 0.00101127 5e-05 -0.0524878 -0.000843997 -0.0897482 0 0 -5.1365e-09 
381 1 0.000291067 -0.000288054 0.00105824 5e-05 -0.0305892 0.0395146 -0.0998611 0 0 -5.1365e-09 
13 1 0.000416288 -0.000234481 0.00105098 5e-05 -0.0189706 0.0296707 -0.101883 0 0 -5.1365e-09 
86 1 0.00019917 -5.43883e-05 0.00109697 5e-05 -0.0701383 0.0489222 -0.107609 0 0 -5.1365e-09 
37 1 0.000354925 -0.00010084 0.000995999 5e-05 -0.0443528 0.0689957 -0.13484 0 0 -5.1365e-09 
434 1 0.00034993 -0.000155623 0.00109879 5e-05 -0.049313 0.0466112 -0.112324 0 0 -5.1365e-09 
239 1 -0.000426021 -2.5771e-05 0.00105015 5e-05 0.0197848 -0.0261957 -0.169991 0 0 -5.1365e-09 
321 1 -0.000319245 1.69713e-05 0.00102235 5e-05 0.077238 -0.0407956 -0.108493 0 0 -5.1365e-09 
153 1 -0.000235868 -4.975e-05 0.00106818 5e-05 -0.00443353 -0.0346912 -0.118303 0 0 -5.1365e-09 
50 1 0.000482999 2.31721e-05 0.0010926 5e-05 0.014635 0.0257842 -0.104452 0 0 -5.1365e-09 
463 1 -0.000405298 0.000104056 0.00107261 5e-05 0.0569846 -0.0282003 -0.0913977 0 0 -5.1365e-09 
123 1 -0.000457505 0.000194388 0.00109423 5e-05 0.019515 -0.0261107 -0.1037 0 0 -5.1365e-09 
10 1 -0.000341836 0.000271433 0.00105722 5e-05 0.0301266 -0.0427776 -0.085307 0 0 -5.1365e-09 
311 1 -0.000233801 0.000225038 0.000971391 5e-05 0.0385044 -0.0223377 -0.162107 0 0 -5.1365e-09 
115 1 -8.29134e-05 0.000272629 0.000999152 5e-05 0.0414637 -0.0104724 -0.121033 0 0 -5.1365e-09 
90 1 0.000233603 0.000294728 0.000974974 5e-05 0.00805711 -0.0362823 -0.138202 0 0 -5.1365e-09 
384 1 -4.90181e-05 0.000466628 0.00109335 5e-05 0.0366834 -0.0280761 -0.0628954 0 0 -5.1365e-09 
60 1 0.000137194 0.000405911 0.00109897 5e-05 -0.025586 -0.0363983 -0.108256 0 0 -5.1365e-09 
473 1 -0.000242605 -0.000452988 0.00117697 5e-05 0.0304737 0.0187174 -0.0722886 0 0 -5.1365e-09 
42 1 -6.90751e-05 -0.000525734 0.00128654 5e-05 0.0393424 0.0360296 -0.0413672 0 0 -5.1365e-09 
291 1 0.000181107 -0.000386817 0.00121607 5e-05 -0.0450509 0.0370374 -0.0794819 0 0 -5.1365e-09 
305 1 9.88419e-05 -0.000292065 0.0012125 5e-05 0.0678875 0.0125076 -0.0904487 0 0 -5.1365e-09 
549 1 -4.8824e-05 -0.000282667 0.00126927 5e-05 0.0270582 0.0804245 -0.106183 0 0 -5.1365e-09 
331 1 0.000380358 -0.000316201 0.00115558 5e-05 -0.0360335 0.044515 -0.0855119 0 0 -5.1365e-09 
141 1 0.000328196 -0.000309893 0.00125714 5e-05 -0.00127255 0.0211515 -0.100672 0 0 -5.1365e-09 
78 1 0.00025119 -0.000198014 0.00124073 5e-05 -0.0362565 0.0416825 -0.11495 0 0 -5.1365e-09 
168 1 -0.000454514 -0.000212755 0.00116747 5e-05 0.0461249 -0.0491039 -0.114817 0 0 -5.1365e-09 
449 1 -0.000339193 -0.00016001 0.00123227 5e-05 0.028018 0.0127565 -0.0975417 0 0 -5.1365e-09 
25 1 0.000246006 -0.000228863 0.00113237 5e-05 -0.0120576 -0.0242574 -0.133136 0 0 -5.1365e-09 
17 1 0.000313148 -0.000113968 0.00122596 5e-05 -0.0336379 0.0138687 -0.102752 0 0 -5.1365e-09 
136 1 0.000470682 -0.000159373 0.00114034 5e-05 0.0039116 -0.00461959 -0.125461 0 0 -5.1365e-09 
121 1 0.000415187 -0.000188793 0.00124305 5e-05 -0.0165498 -0.0165638 -0.109295 0 0 -5.1365e-09 
387 1 -0.00051298 1.31579e-05 0.00121641 5e-05 0.0210013 -0.00641395 -0.0854187 0 0 -5.1365e-09 
363 1 -0.000430406 -0.000112432 0.00120695 5e-05 0.00673674 -0.076826 -0.128862 0 0 -5.1365e-09 
383 1 -0.000407315 3.30761e-05 0.00119684 5e-05 0.00112309 -0.0363858 -0.145038 0 0 -5.1365e-09 
92 1 -0.000246223 -4.99302e-05 0.00127233 5e-05 0.0482677 -0.024454 -0.111519 0 0 -5.1365e-09 
564 1 -0.000209243 5.56118e-05 0.00122733 5e-05 0.0281653 -0.020797 -0.110693 0 0 -5.1365e-09 
459 1 0.000382635 -7.69112e-06 0.00110846 5e-05 -0.0350169 0.0245835 -0.149755 0 0 -5.1365e-09 
91 1 0.000255931 9.38933e-06 0.00116449 5e-05 -0.0130264 0.0387272 -0.138447 0 0 -5.1365e-09 
457 1 0.000449722 -8.18011e-05 0.00121344 5e-05 0.00532792 0.00304385 -0.13458 0 0 -5.1365e-09 
287 1 0.000435334 5.35448e-05 0.00129607 5e-05 -0.0348853 0.0107311 -0.0958864 0 0 -5.1365e-09 
26 1 -0.000527467 6.23896e-05 0.0013097 5e-05 0.0226485 -0.0349107 -0.0688815 0 0 -5.1365e-09 
61 1 -0.000474132 0.000130095 0.00118592 5e-05 -0.0100089 -0.062271 -0.107962 0 0 -5.1365e-09 
49 1 -0.000268493 0.0001214 0.00113236 5e-05 0.0369398 -0.0310193 -0.151527 0 0 -5.1365e-09 
126 1 -0.000369262 0.000128866 0.00121246 5e-05 0.00844834 -0.0360413 -0.136182 0 0 -5.1365e-09 
213 1 -0.000173783 0.000142316 0.00117424 5e-05 0.0420886 0.0246029 -0.111101 0 0 -5.1365e-09 
441 1 0.000445798 0.00013598 0.00115285 5e-05 -0.0196202 0.0586836 -0.110718 0 0 -5.1365e-09 
497 1 0.000443358 0.000160414 0.00125913 5e-05 -0.0295748 0.00671062 -0.0995168 0 0 -5.1365e-09 
84 1 0.000528916 9.31775e-05 0.00128823 5e-05 0.00277832 -0.0194821 -0.0484791 0 0 -5.1365e-09 
393 1 -0.000417708 0.000272097 0.00115386 5e-05 0.00873935 -0.0366832 -0.100944 0 0 -5.1365e-09 
320 1 -0.000392321 0.000334245 0.00123369 5e-05 0.0180043 -0.0161222 -0.111014 0 0 -5.1365e-09 
388 1 -0.000324653 0.00021453 0.00116232 5e-05 0.000226978 -0.0206739 -0.113784 0 0 -5.1365e-09 
87 1 -0.000261138 0.000271028 0.00127752 5e-05 0.0488708 -0.0292206 -0.109122 0 0 -5.1365e-09 
108 1 -0.000191855 0.000262519 0.00116625 5e-05 0.0230341 -0.0450484 -0.103978 0 0 -5.1365e-09 
228 1 0.000154716 0.000287818 0.00130034 5e-05 -0.0439509 -0.0505929 -0.0587402 0 0 -5.1365e-09 
74 1 0.000441325 0.000275759 0.00123626 5e-05 -0.0197507 0.0226246 -0.0973384 0 0 -5.1365e-09 
537 1 -0.000330863 0.000364608 0.00114296 5e-05 0.0252605 -0.0295926 -0.0840139 0 0 -5.1365e-09 
560 1 -8.64243e-05 0.000406692 0.00119641 5e-05 0.0607996 -0.0452772 -0.112276 0 0 -5.1365e-09 
358 1 6.28195e-05 0.000352292 0.00119683 5e-05 -0.0472596 -0.042979 -0.0901065 0 0 -5.1365e-09 
476 1 0.000159257 0.000493849 0.00123874 5e-05 -0.0123491 -0.0150846 -0.10376 0 0 -5.1365e-09 
9 1 -9.57101e-05 -0.000554928 0.00143826 5e-05 0.0123796 -0.00401865 -0.0856146 0 0 -5.1365e-09 
317 1 3.55819e-05 -0.00055668 0.00138272 5e-05 0.0730918 -0.00930579 -0.0836094 0 0 -5.1365e-09 
298 1 0.000159751 -0.00056251 0.00150601 5e-05 0.0250584 0.0144223 -0.025471 0 0 -5.1365e-09 
113 1 -0.000382992 -0.000409626 0.00145179 5e-05 0.0302533 -0.00214568 -0.0428611 0 0 -5.1365e-09 
536 1 6.0088e-05 -0.000485058 0.00149066 5e-05 -0.000629254 0.0197803 -0.052603 0 0 -5.1365e-09 
3 1 -4.86375e-05 -0.000438578 0.00143286 5e-05 -0.00456906 -0.0135028 -0.0872021 0 0 -5.1365e-09 
107 1 0.000183744 -0.000508465 0.00138327 5e-05 -0.00416055 0.0233196 -0.048961 0 0 -5.1365e-09 
296 1 0.000340188 -0.000433163 0.00134177 5e-05 0.00150409 0.00242923 -0.053458 0 0 -5.1365e-09 
118 1 0.000287297 -0.000522771 0.0015331 5e-05 0.0165705 0.023582 0.0144065 0 0 -5.1365e-09 
316 1 0.00038618 -0.000431245 0.00143376 5e-05 -0.0208822 0.0389342 -0.0168514 0 0 -5.1365e-09 
227 1 -0.00044122 -0.000295356 0.001399 5e-05 0.0267836 0.00715341 -0.0533774 0 0 -5.1365e-09 
538 1 0.000155759 -0.000327929 0.00133021 5e-05 0.0770698 0.0508823 -0.0648586 0 0 -5.1365e-09 
496 1 0.000393883 -0.000257758 0.00143617 5e-05 -0.00215878 0.0635555 -0.0668215 0 0 -5.1365e-09 
159 1 0.000397996 -0.00033424 0.00135569 5e-05 -0.0208131 -0.001881 -0.0744938 0 0 -5.1365e-09 
35 1 0.000463757 -0.000265046 0.00131672 5e-05 0.0064341 -0.00666364 -0.0987423 0 0 -5.1365e-09 
258 1 0.000523613 -0.00023913 0.00143245 5e-05 -0.0100841 0.0188322 -0.0801628 0 0 -5.1365e-09 
337 1 -0.000552208 -0.000142861 0.00142831 5e-05 0.0207471 -0.00286427 -0.0515262 0 0 -5.1365e-09 
342 1 -0.000448202 -0.000181794 0.00132536 5e-05 -0.00949733 -0.012447 -0.0975749 0 0 -5.1365e-09 
51 1 -0.000392398 -0.000188043 0.00143258 5e-05 0.0519598 0.00694083 -0.0983697 0 0 -5.1365e-09 
165 1 -0.000458027 -0.000111931 0.00145784 5e-05 0.0425654 -0.00400869 -0.0776484 0 0 -5.1365e-09 
281 1 -0.000284174 -0.000140872 0.00132924 5e-05 0.0426414 -0.0222216 -0.0807134 0 0 -5.1365e-09 
170 1 0.000305422 -7.63121e-05 0.00134653 5e-05 0.0167538 0.0192423 -0.110363 0 0 -5.1365e-09 
448 1 0.000328325 -0.000194559 0.00130819 5e-05 -0.0535441 0.0146686 -0.11673 0 0 -5.1365e-09 
330 1 0.00037776 -9.60113e-05 0.00141983 5e-05 -0.0026934 0.026548 -0.0683407 0 0 -5.1365e-09 
447 1 0.000522482 -0.000137181 0.00130529 5e-05 -0.0235526 0.023994 -0.0843628 0 0 -5.1365e-09 
274 1 0.000422561 -0.000155741 0.0013398 5e-05 -0.0407502 0.0331735 -0.116388 0 0 -5.1365e-09 
429 1 -0.000559883 -4.91189e-05 0.00138464 5e-05 0.024454 -0.0336546 -0.0762947 0 0 -5.1365e-09 
438 1 -0.000571265 3.39303e-05 0.00145279 5e-05 0.0298574 -0.0146036 -0.06665 0 0 -5.1365e-09 
160 1 -0.000391457 -7.52258e-05 0.00133301 5e-05 0.0282196 -0.011693 -0.0946089 0 0 -5.1365e-09 
75 1 -0.000438169 1.29701e-05 0.00132452 5e-05 0.0347513 -0.0356564 -0.102693 0 0 -5.1365e-09 
45 1 -0.000474152 2.88446e-06 0.00142517 5e-05 0.0267542 0.0126574 -0.0936076 0 0 -5.1365e-09 
6 1 -0.000391011 6.51725e-05 0.00140406 5e-05 0.00739416 -0.0139894 -0.108652 0 0 -5.1365e-09 
30 1 -0.000342782 1.21392e-05 0.0012755 5e-05 0.0352693 -0.00179748 -0.142418 0 0 -5.1365e-09 
142 1 -0.00028449 4.90175e-05 0.00135199 5e-05 -0.0136861 0.00111094 -0.0881152 0 0 -5.1365e-09 
455 1 -0.000214342 -2.74106e-05 0.00145956 5e-05 0.0145165 -0.0156057 -0.070143 0 0 -5.1365e-09 
454 1 0.000223941 -4.12972e-07 0.00131859 5e-05 -0.0164647 0.0288415 -0.116536 0 0 -5.1365e-09 
256 1 0.000318358 9.08092e-05 0.00132896 5e-05 0.0153443 0.0202511 -0.0863437 0 0 -5.1365e-09 
261 1 0.000381783 -3.66232e-05 0.00127671 5e-05 0.00764755 0.0321967 -0.0992024 0 0 -5.1365e-09 
504 1 0.000268512 -1.36844e-05 0.00144736 5e-05 -0.00475341 0.00820692 -0.0965461 0 0 -5.1365e-09 
340 1 0.000443878 -4.03458e-05 0.00136138 5e-05 -0.0193531 0.0461015 -0.106172 0 0 -5.1365e-09 
266 1 0.000547121 -2.14744e-05 0.00133269 5e-05 -0.00541411 0.024252 -0.0614293 0 0 -5.1365e-09 
208 1 0.000574673 -4.06394e-05 0.00146327 5e-05 -0.0194327 0.030199 -0.0619986 0 0 -5.1365e-09 
11 1 0.000571851 5.57864e-05 0.0014351 5e-05 -0.0164 0.034642 -0.0558356 0 0 -5.1365e-09 
351 1 -0.00054639 0.000137235 0.00143765 5e-05 -0.00193349 -0.00518996 -0.0602565 0 0 -5.1365e-09 
421 1 -0.000450229 0.000140121 0.00128856 5e-05 0.0130716 -0.030446 -0.112586 0 0 -5.1365e-09 
507 1 -0.000244393 0.000164288 0.00135411 5e-05 0.0561152 -0.0364735 -0.0943384 0 0 -5.1365e-09 
324 1 -0.000350703 0.000145482 0.00135607 5e-05 0.028025 -0.0119042 -0.101583 0 0 -5.1365e-09 
347 1 -0.000298596 0.000118362 0.00144868 5e-05 -0.00679649 -0.0289466 -0.0712993 0 0 -5.1365e-09 
95 1 -0.000384817 0.000218923 0.00143997 5e-05 -0.0154118 -0.00874553 -0.0918206 0 0 -5.1365e-09 
225 1 0.000323162 0.000144529 0.00143015 5e-05 -0.00365562 -0.00462731 -0.0709017 0 0 -5.1365e-09 
346 1 0.000413235 0.00011693 0.00138552 5e-05 -0.0442789 0.0453745 -0.108246 0 0 -5.1365e-09 
282 1 0.000520436 0.000131246 0.00138274 5e-05 -0.0300841 0.0103407 -0.101254 0 0 -5.1365e-09 
226 1 -0.000491864 0.000227213 0.00134099 5e-05 0.0105616 -0.0305489 -0.0934641 0 0 -5.1365e-09 
47 1 -0.000359809 0.000224679 0.00128185 5e-05 0.0174203 -0.0217939 -0.130844 0 0 -5.1365e-09 
224 1 -0.000429519 0.000298773 0.00137965 5e-05 0.0226634 -0.0372165 -0.0990442 0 0 -5.1365e-09 
297 1 -0.000476179 0.000252457 0.00148461 5e-05 0.0172144 0.0241189 -0.0531662 0 0 -5.1365e-09 
413 1 0.00039742 0.000242797 0.0014681 5e-05 -0.00158094 -0.0139157 -0.0472973 0 0 -5.1365e-09 
290 1 0.00040297 0.000343765 0.00150027 5e-05 0.00607039 0.00668545 -0.0428399 0 0 -5.1365e-09 
244 1 0.000487451 0.000246038 0.00139491 5e-05 -0.0420485 -0.0345399 -0.0660809 0 0 -5.1365e-09 
389 1 -0.000336788 0.00038972 0.00133312 5e-05 0.0122388 -0.0397967 -0.100554 0 0 -5.1365e-09 
181 1 2.05716e-05 0.000423523 0.00142655 5e-05 -0.0174604 0.0203644 -0.0613672 0 0 -5.1365e-09 
174 1 -7.72027e-05 0.000470119 0.00137939 5e-05 -0.0773338 -0.00813181 -0.0680342 0 0 -5.1365e-09 
140 1 0.000108568 0.0004469 0.00138236 5e-05 -0.0191202 -0.0294534 -0.0724933 0 0 -5.1365e-09 
218 1 0.000339946 0.00042034 0.00140063 5e-05 -0.0192395 -0.00584947 -0.0497329 0 0 -5.1365e-09 
548 1 -1.40134e-05 0.000568575 0.00143354 5e-05 0.00463659 -0.0171816 -0.0608432 0 0 -5.1365e-09 
502 1 7.54641e-05 0.000547595 0.00137552 5e-05 -0.00903413 -0.0158564 -0.0571952 0 0 -5.1365e-09 
494 1 5.71547e-05 0.000575113 0.00151201 5e-05 -0.0205989 -0.0637367 -0.0149924 0 0 -5.1365e-09 
207 1 -0.000114632 -0.000583874 0.00157231 5e-05 8.39531e-05 -0.00876866 -0.0335545 0 0 -5.1365e-09 
556 1 -0.00018448 -0.00059255 0.00166605 5e-05 0.00654219 0.00176244 -0.0519428 0 0 -5.1365e-09 
553 1 -2.92918e-05 -0.000587412 0.00150841 5e-05 0.0125681 -0.0034498 -0.0269835 0 0 -5.1365e-09 
373 1 0.000106974 -0.000604313 0.00162938 5e-05 0.035877 0.0116024 -0.00942233 0 0 -5.1365e-09 
545 1 0.000205691 -0.000580491 0.00162205 5e-05 0.00116978 -0.0075313 -0.0198807 0 0 -5.1365e-09 
513 1 0.000299177 -0.000551892 0.00166955 5e-05 0.0300004 -0.00812677 0.00446371 0 0 -5.1365e-09 
68 1 -0.000380882 -0.000417137 0.00155688 5e-05 0.00763384 -0.00589651 -0.0389762 0 0 -5.1365e-09 
516 1 -0.000400188 -0.00048388 0.00164193 5e-05 0.0244017 0.0158398 -0.0417687 0 0 -5.1365e-09 
67 1 -0.000322602 -0.000509497 0.00155961 5e-05 0.021527 -0.0117402 -0.0120104 0 0 -5.1365e-09 
283 1 -0.000219532 -0.000540115 0.00153697 5e-05 0.0243295 -0.0407493 -0.0559072 0 0 -5.1365e-09 
335 1 -0.000257953 -0.00043336 0.0015541 5e-05 0.0186671 -0.0286987 -0.0284856 0 0 -5.1365e-09 
85 1 -0.000269056 -0.000488548 0.00164697 5e-05 0.039655 -0.00336774 -0.0209504 0 0 -5.1365e-09 
523 1 -0.000122689 -0.000421639 0.00155081 5e-05 0.0323032 -0.0155875 -0.00707346 0 0 -5.1365e-09 
284 1 -0.000142729 -0.000499803 0.00163169 5e-05 0.0074848 -0.0315828 -0.0377683 -1.17611e-08 -1.16011e-07 -6.62685e-08 
375 1 -4.89389e-05 -0.000494019 0.00157893 5e-05 0.00735629 0.0191417 -0.0344436 0 0 -5.1365e-09 
203 1 7.84496e-05 -0.000411916 0.00165344 5e-05 0.0263003 0.0336283 0.0069924 0 0 -5.1365e-09 
14 1 6.23048e-05 -0.000510976 0.0016156 5e-05 0.00992415 0.00325035 -0.0119871 0 0 -5.1365e-09 
382 1 9.09473e-05 -0.000400452 0.00153833 5e-05 0.0145954 -0.0111898 -0.0198365 0 0 -5.1365e-09 
188 1 0.000197621 -0.000475498 0.00155185 5e-05 0.00929247 0.0188983 0.00375734 0 0 -5.1365e-09 
236 1 0.000203157 -0.000378098 0.00158504 5e-05 0.035794 0.017166 -0.00513438 0 0 -5.1365e-09 
361 1 0.000199847 -0.000407108 0.00169319 5e-05 0.00598766 -0.0196422 0.00858118 0 0 -5.1365e-09 
511 1 0.00015843 -0.000493386 0.00164629 5e-05 0.0246155 0.0134008 0.0185444 0 0 -5.1365e-09 
156 1 0.000294516 -0.000415381 0.00155137 5e-05 0.00335812 0.00485243 0.0113084 0 0 -5.1365e-09 
102 1 0.000307551 -0.000454111 0.00164585 5e-05 0.0254766 0.0195431 0.00558802 0 0 -5.1365e-09 
255 1 0.000386543 -0.000468354 0.00157587 5e-05 -0.0391656 -0.0331255 -0.064318 0 0 -5.1365e-09 
430 1 -0.000560835 -0.000271119 0.00161627 5e-05 -0.0241447 0.00411094 -0.0672124 1.63243e-06 1.21832e-07 1.17672e-06 
514 1 -0.000501009 -0.000277713 0.00152099 5e-05 0.0140434 0.00897453 -0.053997 0 0 -5.1365e-09 
29 1 -0.000388728 -0.000313662 0.00151608 5e-05 -0.00315069 -0.00575999 -0.0424208 0 0 -5.1365e-09 
295 1 -0.000444617 -0.000215231 0.00159735 5e-05 0.0242126 0.0479859 -0.0144305 0 0 -5.1365e-09 
237 1 -0.000488754 -0.000350509 0.00159614 5e-05 -0.00323781 0.0299086 -0.0337462 0 0 -5.1365e-09 
99 1 -0.000231278 -0.000330366 0.00155134 5e-05 0.0235223 -0.0165845 0.0235587 0 0 -5.1365e-09 
400 1 -0.000325681 -0.000246518 0.00155575 5e-05 0.00360708 -0.00585547 -0.0175326 0 0 -5.1365e-09 
368 1 -0.000318192 -0.000343397 0.00160808 5e-05 0.00691714 0.00130375 -0.0232041 0 0 -5.1365e-09 
544 1 -0.000237848 -0.000281704 0.001671 5e-05 0.00823119 -0.018058 -0.00678924 0 0 -5.1365e-09 
167 1 -0.000192205 -0.000394257 0.00162183 5e-05 0.000940558 -0.0402893 -0.00769694 0 0 -5.1365e-09 
534 1 -0.00015093 -0.000298004 0.00162038 5e-05 0.0162634 -0.0100253 0.00974564 0 0 -5.1365e-09 
4 1 -9.34209e-05 -0.000393592 0.00164223 5e-05 0.00139049 -0.0150556 0.00353299 -1.3519e-08 -1.23133e-09 -2.31231e-08 
427 1 -8.02123e-05 -0.00032806 0.00155345 5e-05 0.0149322 0.00109996 -0.0108868 0 0 -5.1365e-09 
131 1 6.98212e-05 -0.000300784 0.00155305 5e-05 0.0145804 -0.0124871 -0.00217859 0 0 -5.1365e-09 
554 1 3.78265e-06 -0.000355436 0.00161141 5e-05 0.0276492 0.0103483 -0.0329053 0 0 -5.1365e-09 
104 1 -3.01312e-05 -0.00025072 0.00160323 5e-05 0.0186307 -0.017559 -0.00652469 0 0 -5.1365e-09 
279 1 4.41632e-05 -0.000278381 0.00166496 5e-05 -0.0099816 0.000808755 -0.00141779 0 0 -5.1365e-09 
22 1 0.00013268 -0.000320624 0.00163258 5e-05 0.0203491 0.00995321 0.00655744 0 0 -5.1365e-09 
70 1 0.000199779 -0.000277385 0.00155018 5e-05 0.00600876 -0.00395776 0.00249139 -2.90441e-07 -5.34251e-07 -1.5846e-07 
114 1 0.000285506 -0.000336328 0.00162771 5e-05 0.0374652 0.0442819 0.0185309 0 0 -5.1365e-09 
386 1 0.00034678 -0.000256006 0.00159585 5e-05 0.0367322 0.046679 -0.00894757 0 0 -5.1365e-09 
150 1 0.000366024 -0.000343145 0.00155034 5e-05 0.0416198 0.0137248 0.0117168 0 0 -5.1365e-09 
166 1 0.000456265 -0.000366761 0.00151426 5e-05 -0.0209008 0.0280744 -0.0492653 0 0 -5.1365e-09 
215 1 0.000485921 -0.000267345 0.00153094 5e-05 0.0545503 -0.000602688 -0.0449418 0 0 -5.1365e-09 
518 1 0.000444136 -0.0003895 0.00161836 5e-05 0.0279631 -0.00262983 -0.0441203 0 0 -5.1365e-09 
198 1 0.000448214 -0.00026131 0.0016289 5e-05 -0.00526518 0.00620926 -0.0643156 0 0 -5.1365e-09 
93 1 0.000550845 -0.000283911 0.00161719 5e-05 -0.00367857 -0.00155797 -0.0180201 0 0 -5.1365e-09 
83 1 -0.000566937 -0.000184826 0.00155724 5e-05 0.0314166 0.0213381 -0.0543237 0 0 -5.1365e-09 
103 1 -0.00049055 -0.000106084 0.00156694 5e-05 0.0227598 0.000604419 -0.0962376 0 0 -5.1365e-09 
43 1 -0.000222579 -0.00022902 0.00155346 5e-05 0.00757065 -0.00736175 0.0191609 0 0 -5.1365e-09 
343 1 -0.000286375 -0.000153716 0.00159291 5e-05 -0.02496 -0.00675927 -0.0313609 0 0 -5.1365e-09 
191 1 -0.000377019 -0.000144548 0.00153483 5e-05 -0.00147698 0.0125886 -0.0627503 0 0 -5.1365e-09 
80 1 -0.000195909 -0.00013064 0.00155491 5e-05 -0.00161076 0.00254367 0.0145737 -1.88433e-07 -6.91059e-08 -2.07814e-07 
81 1 -0.000113802 -0.000226156 0.00155036 5e-05 0.00826814 -0.007175 0.0066962 0 0 -5.1365e-09 
309 1 -0.000120603 -0.000150631 0.00161757 5e-05 0.00932736 -0.00318079 0.000233717 1.88433e-07 6.91059e-08 1.97541e-07 
555 1 -4.03236e-05 -0.000157991 0.00155052 5e-05 0.00974104 -0.0134173 -0.00112817 0 0 -5.1365e-09 
405 1 6.11869e-05 -0.000106856 0.00155018 5e-05 0.0150537 0.0060829 0.00143933 0 0 -5.1365e-09 
376 1 6.28314e-05 -0.000204332 0.00158322 5e-05 -0.000131697 0.00380856 -0.00741066 0 0 -5.1365e-09 
20 1 6.35759e-05 -0.000132112 0.00165954 5e-05 0.027756 0.00485936 0.00533171 0 0 -5.1365e-09 
246 1 -4.41594e-05 -0.000130174 0.00167872 5e-05 -0.00111063 -0.0160204 -0.0179237 0 0 -5.1365e-09 
414 1 0.000153233 -0.000175095 0.00155043 5e-05 0.0217754 0.000263592 0.0154607 0 0 -5.1365e-09 
293 1 0.000146196 -0.000213331 0.00164273 5e-05 0.0228421 -0.0096081 -0.00557557 0 0 -5.1365e-09 
98 1 0.000157212 -7.03273e-05 0.00155101 5e-05 0.0251724 0.0105321 -0.0131958 0 0 -5.1365e-09 
77 1 0.000250187 -9.04499e-05 0.00158738 5e-05 0.000692946 -0.0015805 -0.0267446 0 0 -5.1365e-09 
155 1 0.000345458 -0.000182025 0.001488 5e-05 0.045731 0.0567525 -0.0624124 0 0 -5.1365e-09 
467 1 0.000363602 -8.74962e-05 0.00156042 5e-05 0.026324 -0.0213662 -0.0778646 0 0 -5.1365e-09 
149 1 0.000252944 -0.000199338 0.00158296 5e-05 0.0110543 0.0222313 -0.0243736 2.90441e-07 5.34251e-07 1.48187e-07 
325 1 0.000447253 -0.000153299 0.00149806 5e-05 -0.01043 -0.00451327 -0.0907167 0 0 -5.1365e-09 
233 1 0.000480505 -0.000127666 0.00160932 5e-05 0.013313 -0.0344987 -0.045213 0 0 -5.1365e-09 
294 1 0.000560157 -0.000191355 0.00157812 5e-05 0.0405257 0.00476541 -0.0697554 0 0 -5.1365e-09 
27 1 0.000565223 -0.000139054 0.00149259 5e-05 -0.00933181 0.0243509 -0.0609589 0 0 -5.1365e-09 
355 1 -0.000582584 -6.76874e-05 0.00150095 5e-05 0.0129577 -0.0314697 -0.0559442 0 0 -5.1365e-09 
46 1 -0.000571197 -2.3788e-05 0.00162786 5e-05 -0.0368544 -0.0659272 -0.0425063 0 0 -5.1365e-09 
312 1 -0.000410391 -3.56707e-05 0.00150364 5e-05 0.00272337 -0.0208843 -0.0539018 0 0 -5.1365e-09 
506 1 -0.000458011 4.62053e-05 0.00154452 5e-05 -0.0131286 -0.024462 -0.0798625 2.77166e-08 -8.49569e-08 6.67066e-09 
532 1 -0.000470005 -1.96913e-05 0.00162628 5e-05 -0.0241914 0.0548955 -0.0404546 0 0 -5.1365e-09 
397 1 -0.000363671 -6.65222e-05 0.00159946 5e-05 -0.0244668 0.0091196 -0.0597053 0 0 -5.1365e-09 
204 1 -0.000309552 -4.55226e-05 0.00151375 5e-05 0.0181365 -0.0362077 -0.0625555 0 0 -5.1365e-09 
431 1 -0.000266789 5.3789e-05 0.00154819 5e-05 -0.013819 -0.0130727 -0.0769921 0 0 -5.1365e-09 
329 1 -0.000340426 4.04772e-05 0.00161539 5e-05 -0.00922808 -0.0123703 -0.0704072 0 0 -5.1365e-09 
360 1 -0.000256844 -6.33252e-05 0.0016372 5e-05 -0.0244089 0.0249975 -0.0411495 0 0 -5.1365e-09 
40 1 -8.66515e-05 -6.36341e-05 0.00155255 5e-05 0.00276994 -0.0185471 -0.00260172 0 0 -5.1365e-09 
484 1 -0.000150425 -5.49788e-05 0.00163239 5e-05 -0.00428998 -0.00834091 -0.00923686 0 0 -5.1365e-09 
472 1 -0.000168066 2.46092e-05 0.0015501 5e-05 -0.0225724 -0.0353956 0.00354473 0 0 -5.1365e-09 
557 1 -0.000187526 4.37047e-05 0.00164695 5e-05 -0.0265521 -0.0193228 -0.00184243 0 0 -5.1365e-09 
124 1 -5.32229e-06 -6.17221e-05 0.0016108 5e-05 0.0226476 -0.000541229 -0.00325939 0 0 -5.1365e-09 
359 1 -7.28142e-05 2.65717e-05 0.00159993 5e-05 -0.00299034 0.00770984 -0.00934308 0 0 -5.1365e-09 
446 1 2.28905e-05 1.59118e-05 0.00155089 5e-05 -0.00024921 0.0186573 0.0145744 0 0 -5.1365e-09 
440 1 2.06552e-05 8.80398e-06 0.00167748 5e-05 0.00642657 0.0153186 -0.00268881 0 0 -5.1365e-09 
559 1 9.13607e-05 -3.94192e-05 0.00162559 5e-05 0.00535474 0.01242 -0.0169629 0 0 -5.1365e-09 
158 1 0.000121391 3.7524e-05 0.00155053 5e-05 0.00315011 0.0142933 -0.00310871 0 0 -5.1365e-09 
64 1 0.000196203 -2.34789e-07 0.001611 5e-05 0.00614534 0.000257736 -0.00937793 0 0 -5.1365e-09 
304 1 0.000300233 -1.84079e-06 0.00159058 5e-05 0.0264453 -0.00282601 -0.0566424 0 0 -5.1365e-09 
100 1 0.000492117 -5.609e-05 0.00152214 5e-05 -0.0474771 0.0194141 -0.0737882 0 0 -5.1365e-09 
34 1 0.000396808 -1.94795e-05 0.00148639 5e-05 -0.0163181 0.033738 -0.0899412 0 0 -5.1365e-09 
479 1 0.000483201 4.66786e-05 0.00148574 5e-05 -0.0412968 0.0373502 -0.0559189 0 0 -5.1365e-09 
194 1 0.000464766 -1.40494e-05 0.00160867 5e-05 0.0175866 0.00890722 -0.0592111 0 0 -5.1365e-09 
407 1 0.000577628 1.67001e-05 0.00165104 5e-05 0.0268976 -0.0118155 -0.0353307 0 0 -5.1365e-09 
111 1 -0.000589276 5.40419e-05 0.00155152 5e-05 -0.0132961 -0.0286035 -0.0674757 0 0 -5.1365e-09 
339 1 -0.000546438 0.000170459 0.00153708 5e-05 -0.00987808 -0.0184495 -0.0626951 0 0 -5.1365e-09 
109 1 -0.000444079 0.000142355 0.00152087 5e-05 0.0132573 -0.0147063 -0.101443 -2.77166e-08 8.49569e-08 -1.69437e-08 
184 1 -0.000518556 0.000100149 0.00160966 5e-05 -0.0152266 -0.00676421 -0.0486925 0 0 -5.1365e-09 
267 1 -0.000484396 0.000199705 0.00161036 5e-05 -0.00942952 -0.0350511 -0.0759746 0 0 -5.1365e-09 
214 1 -0.000360233 5.65282e-05 0.00150564 5e-05 -0.00836129 -0.021746 -0.0841065 0 0 -5.1365e-09 
179 1 -0.000346824 0.000149646 0.00157427 5e-05 -0.0360328 -0.0216461 -0.0472011 0 0 -5.1365e-09 
364 1 -0.000221747 0.00015032 0.00155166 5e-05 -0.0316828 -0.00700683 0.000416387 0 0 -5.1365e-09 
481 1 -0.000188926 0.00023365 0.0016058 5e-05 -0.0262956 0.00170309 -0.0192037 0 0 -5.1365e-09 
428 1 -0.000132165 0.000143955 0.00159667 5e-05 -0.030138 0.00511605 -0.0131554 0 0 -5.1365e-09 
192 1 -0.000100508 0.000232299 0.00155237 5e-05 -0.0265853 0.0145999 0.00600791 0 0 -5.1365e-09 
310 1 -0.00024398 0.000133906 0.00165054 5e-05 -0.0194867 -0.0157403 -0.0468853 0 0 -5.1365e-09 
54 1 8.77423e-06 0.000100686 0.00163603 5e-05 -0.00256498 0.00421414 -0.00931304 0 0 -5.1365e-09 
169 1 -3.4538e-05 0.000131666 0.00155008 5e-05 -0.0188412 0.00806571 0.00257688 0 0 -5.1365e-09 
259 1 -1.81779e-05 0.000209193 0.00161376 5e-05 -0.0229291 0.0142129 0.00674563 0 0 -5.1365e-09 
406 1 5.8954e-05 0.000190619 0.00155216 5e-05 -0.0137568 -0.00512375 0.00436363 0 0 -5.1365e-09 
437 1 5.38072e-05 0.000176197 0.0016849 5e-05 -0.00522645 0.0237083 0.000480368 0 0 -5.1365e-09 
161 1 0.000177823 0.000165867 0.00155033 5e-05 -0.0148068 -0.0079616 0.00113162 0 0 -5.1365e-09 
524 1 0.000104913 0.000119744 0.00160711 5e-05 -0.00293256 0.0198827 -0.0124829 0 0 -5.1365e-09 
570 1 0.000125039 0.000219387 0.00162611 5e-05 -0.00874962 0.00329898 -0.0216505 0 0 -5.1365e-09 
272 1 0.000221282 9.85253e-05 0.00161605 5e-05 0.0100024 -0.0158978 -0.0314256 0 0 -5.1365e-09 
82 1 0.000247562 6.87148e-05 0.00151749 5e-05 0.0173072 -0.0110116 -0.0420902 0 0 -5.1365e-09 
66 1 0.000244969 0.000197123 0.0016176 5e-05 0.0121856 0.0144216 -0.0311286 0 0 -5.1365e-09 