ITEM: TIMESTEP
13000
ITEM: NUMBER OF ATOMS
571
ITEM: BOX BOUNDS ff ff ff
-0.001 0.001
-0.001 0.001
0 0.004
ITEM: ATOMS id type x y z radius vx vy vz fx fy fz 
453 1 -0.000288361 -0.000426077 0.00122999 5e-05 0.0187447 0.00359938 -0.0964436 0 0 -5.1365e-09 
328 1 0.000213065 -0.000404565 0.00125815 5e-05 -0.0452049 0.00674861 -0.117433 0 0 -5.1365e-09 
73 1 0.000310453 -0.000426828 0.00123169 5e-05 -0.000297612 0.0195002 -0.107259 0 0 -5.1365e-09 
242 1 -0.000239651 -0.000340186 0.00126143 5e-05 0.0697022 0.0314788 -0.121777 0 0 -5.1365e-09 
551 1 -0.00011013 -0.000373757 0.00121774 5e-05 0.073647 -0.0171856 -0.132707 0 0 -5.1365e-09 
526 1 0.000306829 -0.00028941 0.00121502 5e-05 0.00789704 -0.0100781 -0.139897 0 0 -5.1365e-09 
199 1 0.000409029 -0.000342114 0.00126364 5e-05 -0.00198493 0.0379445 -0.106455 0 0 -5.1365e-09 
24 1 0.000454705 -0.000252248 0.00127677 5e-05 0.0314403 -0.00353662 -0.124632 0 0 -5.1365e-09 
318 1 0.000384221 -0.000207753 0.0012091 5e-05 0.0125187 -0.0145141 -0.135054 0 0 -5.1365e-09 
490 1 0.000468726 -9.31893e-05 0.0012142 5e-05 0.0148639 0.00499195 -0.131578 0 0 -5.1365e-09 
468 1 -0.00044862 4.76923e-05 0.00123526 5e-05 0 0 -0.127525 0 0 -5.1365e-09 
186 1 0.000443424 5.34575e-06 0.00126774 5e-05 0.00462795 0.0211764 -0.134015 0 0 -5.1365e-09 
243 1 -0.000449324 0.000156322 0.00125969 5e-05 -0.000316709 0.00382402 -0.145511 0 0 -5.1365e-09 
209 1 -0.000263928 0.000170064 0.00117957 5e-05 -0.00335807 -0.0207371 -0.15231 0 0 -5.1365e-09 
353 1 -0.000155985 0.000204354 0.00122622 5e-05 0.000644034 -0.000277811 -0.127829 0 0 -5.1365e-09 
471 1 -0.000411272 0.000320848 0.0012885 5e-05 0.0251247 -0.0235918 -0.0772437 0 0 -5.1365e-09 
252 1 -0.000364954 0.000207542 0.00123868 5e-05 0.00791554 -0.0492148 -0.14182 0 0 -5.1365e-09 
308 1 -0.000319612 0.000330816 0.00122033 5e-05 -0.0255928 0.00912012 -0.15346 0 0 -5.1365e-09 
529 1 0.000212661 0.000377005 0.00120674 5e-05 -0.00957645 0.00921112 -0.147932 0 0 -5.1365e-09 
493 1 0.000406512 0.000337527 0.00132921 5e-05 -0.0215535 -0.0276797 -0.0795325 0 0 -5.1365e-09 
128 1 -0.00033428 0.000418296 0.00128804 5e-05 0.00443946 -0.0186775 -0.111301 0 0 -5.1365e-09 
425 1 -0.000234635 0.000447011 0.00127947 5e-05 0.0307473 -0.0265059 -0.10897 0 0 -5.1365e-09 
422 1 0.000293675 0.000441944 0.00128188 5e-05 -0.0331744 -0.00503889 -0.10697 0 0 -5.1365e-09 
107 1 8.11286e-05 -0.0005611 0.00149307 5e-05 0.0491311 -0.048909 -0.0218694 0 0 -5.1365e-09 
473 1 -0.000343744 -0.000472887 0.00148383 5e-05 0.0724332 0.0691637 -0.0421045 0 0 -5.1365e-09 
89 1 -0.000268296 -0.000466774 0.0013535 5e-05 0.0426321 -0.028843 -0.140649 0 0 -5.1365e-09 
196 1 -0.00014446 -0.000494633 0.00147386 5e-05 0.0519156 -0.0772567 -0.0734626 0 0 -5.1365e-09 
401 1 0.000172156 -0.000505273 0.00136332 5e-05 -0.0071054 -0.033861 -0.100893 0 0 -5.1365e-09 
528 1 0.000294041 -0.000459202 0.00136776 5e-05 -0.0607298 0.0281288 -0.0589409 0 0 -5.1365e-09 
558 1 0.000385526 -0.000404737 0.00137673 5e-05 -0.0384389 0.00784623 -0.0986523 0 0 -5.1365e-09 
379 1 -0.000376371 -0.000358101 0.00135216 5e-05 0.0352849 0.0118298 -0.0706923 0 0 -5.1365e-09 
449 1 -0.000500827 -0.000257117 0.00149453 5e-05 -0.0403538 -0.0282829 -0.0740068 0 0 -5.1365e-09 
489 1 -0.000211554 -0.000369066 0.00147904 5e-05 0.0194488 -0.0319058 -0.0442664 0 0 -5.1365e-09 
305 1 -0.000129473 -0.000302031 0.00152018 5e-05 0.0270798 -0.0180621 -0.06959 4.3349e-07 1.08653e-06 -2.89994e-06 
250 1 0.000186532 -0.000289506 0.0013406 5e-05 -0.00765109 -0.0048381 -0.113972 0 0 -5.1365e-09 
322 1 0.000314734 -0.000349919 0.00130891 5e-05 -0.00380349 -0.00632583 -0.129664 0 0 -5.1365e-09 
23 1 0.000231836 -0.000358589 0.00139713 5e-05 -0.00796684 -0.0284387 -0.124947 0 0 -5.1365e-09 
299 1 0.000273518 -0.000257068 0.00141987 5e-05 0.0141372 -0.0212977 -0.114381 0 0 -5.1365e-09 
222 1 0.000453959 -0.000312304 0.00139235 5e-05 0.021739 -0.0217065 -0.132848 0 0 -5.1365e-09 
251 1 0.000187941 -0.00017863 0.00141169 5e-05 0.0118387 -0.0396499 -0.103843 0 0 -5.1365e-09 
36 1 0.000267521 -0.000177859 0.00133965 5e-05 -0.00252947 -0.00188022 -0.124777 0 0 -5.1365e-09 
508 1 0.000366299 -0.00021923 0.00135839 5e-05 -0.0574315 0.032859 -0.0841497 0 0 -5.1365e-09 
132 1 0.000318879 -7.43958e-05 0.00140814 5e-05 0.0041427 0.0134566 -0.101824 0 0 -5.1365e-09 
350 1 0.000436581 -9.36632e-05 0.00133427 5e-05 0.0183244 0.00397339 -0.120624 0 0 -5.1365e-09 
37 1 0.000459047 -0.000210241 0.00142081 5e-05 0.0428778 -0.00585363 -0.148017 0 0 -5.1365e-09 
239 1 -0.000424208 -1.05052e-05 0.00149208 5e-05 -0.0198965 0.0213925 -0.0457639 0 0 -5.1365e-09 
285 1 -0.000364761 6.90312e-05 0.00139147 5e-05 -0.0139994 -0.00769787 -0.113701 0 0 -5.1365e-09 
367 1 -0.000457968 0.000114936 0.00136215 5e-05 -0.0295221 -0.008453 -0.129275 0 0 -5.1365e-09 
182 1 -0.000337605 0.000107643 0.00130021 5e-05 -0.0189342 -0.0121573 -0.151432 0 0 -5.1365e-09 
326 1 -0.000373734 0.000220722 0.00136293 5e-05 -0.0216711 0.00416238 -0.12961 0 0 -5.1365e-09 
235 1 -0.000231166 0.000152712 0.00133775 5e-05 0.00101419 -0.0150421 -0.130852 0 0 -5.1365e-09 
153 1 -0.000218133 8.90149e-05 0.00146291 5e-05 -0.00443353 -0.0346912 -0.0790628 0 0 -5.1365e-09 
509 1 -0.000482781 0.00023221 0.00134357 5e-05 -0.0197781 -0.0160097 -0.121654 0 0 -5.1365e-09 
482 1 -0.000442822 0.000290769 0.00141684 5e-05 -0.0250891 -0.0157553 -0.103493 0 0 -5.1365e-09 
157 1 -0.000278617 0.000358623 0.00134823 5e-05 0.0273075 -0.0370301 -0.137061 0 0 -5.1365e-09 
485 1 -0.000281739 0.000222362 0.00140779 5e-05 -0.0298499 -0.0291359 -0.132524 0 0 -5.1365e-09 
183 1 -0.000339768 0.000318837 0.00144957 5e-05 -0.00589514 0.0138582 -0.118627 0 0 -5.1365e-09 
115 1 -0.000228164 0.000317314 0.00144013 5e-05 0.0196236 -0.0131702 -0.109537 0 0 -5.1365e-09 
475 1 -0.00015926 0.000265815 0.00135827 5e-05 0.00143709 -0.00057345 -0.0975207 0 0 -5.1365e-09 
90 1 0.000206829 0.000349413 0.00142233 5e-05 0.00370116 0.0357083 -0.0774944 0 0 -5.1365e-09 
57 1 0.000297299 0.000342616 0.00134934 5e-05 -0.0395586 -0.0222407 -0.0988872 0 0 -5.1365e-09 
10 1 -0.000406432 0.000400605 0.00140458 5e-05 -0.0447747 0.00626502 -0.0654064 0 0 -5.1365e-09 
537 1 -0.000333365 0.000469584 0.00147362 5e-05 0.0496488 -0.00255615 -0.0584306 0 0 -5.1365e-09 
384 1 -0.000164637 0.000471376 0.00136063 5e-05 0.0257253 0.00980323 -0.0568238 0 0 -5.1365e-09 
560 1 -0.00022469 0.000546856 0.00150802 5e-05 0.0307181 -0.0940145 0.0241993 0 0 -5.1365e-09 
218 1 0.000420955 0.000417421 0.00153324 5e-05 -0.0211619 -0.00765289 -0.00512407 0 0 -5.1365e-09 
60 1 0.000230919 0.000527408 0.00146559 5e-05 0.0202199 0.00760733 -0.128876 0 0 -5.1365e-09 
553 1 -6.47732e-05 -0.000580494 0.00156138 5e-05 0.0166839 -0.0487056 0.0299688 0 0 -5.1365e-09 
113 1 -0.000455087 -0.000393313 0.00158445 5e-05 -0.000985338 -0.015495 0.0279189 -1.75383e-06 -3.83659e-06 2.40633e-06 
9 1 -0.000302167 -0.000461121 0.0015752 5e-05 0.0596023 -0.026065 -0.0446835 0 0 -5.1365e-09 
317 1 -8.51929e-05 -0.000474596 0.00162311 5e-05 0.0021828 -0.0601955 -0.0285582 0 0 -5.1365e-09 
42 1 -0.000189594 -0.000461946 0.00157476 5e-05 0.00314659 -0.0674234 -0.0715836 0 0 -5.1365e-09 
188 1 7.74882e-05 -0.0004336 0.00155287 5e-05 0.0243278 -0.00486447 0.0041096 0 0 -5.1365e-09 
298 1 1.44385e-05 -0.000519673 0.00159055 5e-05 0.0318884 -0.0546013 -0.0391543 0 0 -5.1365e-09 
536 1 3.85101e-05 -0.000410742 0.00164433 5e-05 -0.00422976 -0.0317822 -0.0610983 0 0 -5.1365e-09 
291 1 0.000229251 -0.000545229 0.00148583 5e-05 0.0300562 -0.0492012 -0.0924055 0 0 -5.1365e-09 
545 1 0.00013097 -0.000494539 0.00161952 5e-05 0.0619796 0.0210466 0.0304845 0 0 -5.1365e-09 
156 1 0.00018087 -0.000431975 0.00155574 5e-05 -0.0460225 0.0392652 -0.0338657 0 0 -5.1365e-09 
118 1 0.000239874 -0.000490669 0.00162872 5e-05 0.10477 -0.0580313 0.0148947 0 0 -5.1365e-09 
296 1 0.000326736 -0.000504509 0.00157267 5e-05 0.0752271 0.0334334 -0.0731978 0 0 -5.1365e-09 
331 1 0.00043244 -0.000386419 0.00153068 5e-05 0.040254 -0.0200174 -0.0987274 0 0 -5.1365e-09 
227 1 -0.000431603 -0.000300837 0.00155544 5e-05 -0.0160086 0.0243155 -0.0295664 1.75383e-06 3.83659e-06 -2.41661e-06 
29 1 -0.000370237 -0.000254248 0.0016235 5e-05 -0.0182338 -0.0554187 -0.0409477 0 0 -5.1365e-09 
99 1 -0.00026333 -0.000261161 0.00162219 5e-05 0.00346162 -0.0687202 -0.0311777 0 0 -5.1365e-09 
335 1 -0.00031292 -0.000356942 0.00155351 5e-05 -0.00191948 -0.0188523 0.0455287 0 0 -5.1365e-09 
523 1 -0.000238997 -0.000370886 0.00162848 5e-05 0.0176216 -0.0526998 0.0378551 0 0 -5.1365e-09 
68 1 -0.000376105 -0.000356245 0.00165275 5e-05 0.0354179 -0.0329867 -0.0814235 0 0 -5.1365e-09 
538 1 -9.27117e-05 -0.000397764 0.00154504 5e-05 0.0158174 -0.0660373 -0.0182124 0 0 -5.1365e-09 
549 1 -0.000142553 -0.000336484 0.00161293 5e-05 0.0337665 -0.0570305 -0.0138273 -4.3349e-07 -1.08653e-06 2.88967e-06 
22 1 9.54757e-05 -0.000256757 0.00162201 5e-05 0.0179316 -0.0428997 -0.000733711 0 0 -5.1365e-09 
382 1 -1.15768e-07 -0.000337463 0.00155224 5e-05 0.0118955 -0.0437707 -0.0242624 0 0 -5.1365e-09 
427 1 -6.19022e-05 -0.000252372 0.00160524 5e-05 -0.00497669 -0.017455 -0.0424999 0 0 -5.1365e-09 
3 1 -5.20109e-05 -0.000356978 0.00166168 5e-05 -0.0232483 -0.0389411 -0.0407369 0 0 -5.1365e-09 
70 1 0.00013926 -0.000315044 0.00155093 5e-05 0.0314464 0.00926503 -0.0219007 -4.6912e-07 5.00064e-07 -2.272e-06 
541 1 0.000228626 -0.000257257 0.00152758 5e-05 -0.000131465 -0.0147496 -0.114067 0 0 -5.1365e-09 
236 1 0.000131948 -0.000370797 0.00163347 5e-05 -0.00896745 -0.0605171 -0.050803 4.6912e-07 -5.00064e-07 2.26173e-06 
141 1 0.000238586 -0.000345146 0.00157552 5e-05 0.0272318 -0.0152283 -0.0838803 0 0 -5.1365e-09 
402 1 0.000311197 -0.000398782 0.00148907 5e-05 0.022117 -0.022141 -0.124838 0 0 -5.1365e-09 
381 1 0.000327715 -0.000280822 0.00151312 5e-05 0.0157787 -0.0381466 -0.10223 0 0 -5.1365e-09 
434 1 0.000382917 -0.000317494 0.00159274 5e-05 -0.000233997 -0.00701939 -0.10765 0 0 -5.1365e-09 
13 1 0.000447646 -0.000289332 0.0015108 5e-05 0.0212985 -0.0254658 -0.14196 0 0 -5.1365e-09 
168 1 -0.000554351 -0.00014914 0.00152636 5e-05 -0.0715769 0.0304809 -0.0510566 0 0 -5.1365e-09 
342 1 -0.000410944 -0.000187874 0.0015557 5e-05 -0.0460664 0.0201457 -0.014982 0 0 -5.1365e-09 
337 1 -0.000564447 -0.000207007 0.00162392 5e-05 0.0768733 0.038802 -0.0275448 0 0 -5.1365e-09 
429 1 -0.000467107 -0.000138068 0.00163334 5e-05 -0.0937553 0.0309898 -0.0285639 0 0 -5.1365e-09 
43 1 -0.000244924 -0.000191674 0.00155065 5e-05 0.00613923 -0.0158312 0.0192067 2.65112e-07 -4.93208e-07 -2.50917e-06 
281 1 -0.000330229 -0.00013587 0.00159741 5e-05 -0.0387645 0.0118919 -0.00693751 0 0 -5.1365e-09 
92 1 -0.000276339 -6.48265e-05 0.00155198 5e-05 0.00315776 0.0149594 0.00469287 0 0 -5.1365e-09 
80 1 -0.000174387 -8.87153e-05 0.00155069 5e-05 -0.00479707 -0.0127761 0.0534459 0 0 -5.1365e-09 
81 1 -0.0001421 -0.000197502 0.00155283 5e-05 0.00378987 -0.0166168 0.0449986 0 0 -5.1365e-09 
343 1 -0.000230287 -0.000145475 0.00163798 5e-05 0.00806478 -0.00464462 -0.0382689 -2.65112e-07 4.93208e-07 2.4989e-06 
534 1 -0.000158019 -0.00023474 0.00164602 5e-05 -0.0384064 -0.00174057 -0.048237 0 0 -5.1365e-09 
309 1 -0.000125124 -0.000114625 0.00163395 5e-05 -0.00410811 0.0063223 -0.0335417 0 0 -5.1365e-09 
555 1 -7.08007e-05 -0.00011763 0.00155002 5e-05 0.00381727 0.000796853 0.00427403 0 0 -5.1365e-09 
131 1 2.28204e-05 -0.000239807 0.00155021 5e-05 0.0264869 -0.029936 0.0225952 0 0 -5.1365e-09 
405 1 2.83912e-05 -9.8241e-05 0.00155031 5e-05 0.00668757 -0.0151027 0.00111628 0 0 -5.1365e-09 
376 1 2.07399e-05 -0.000170508 0.00162265 5e-05 -0.0051638 -0.0492079 -0.0325573 -3.84253e-07 -1.33274e-07 -6.3999e-07 
414 1 9.82361e-05 -0.000172797 0.00155108 5e-05 0.0130448 -0.0267069 -0.00120159 0 0 -5.1365e-09 
25 1 0.000206 -0.000153496 0.00156299 5e-05 0.0436809 0.00151514 -0.0465985 0 0 -5.1365e-09 
293 1 0.000130394 -0.000180298 0.0016778 5e-05 0.00495352 -0.021427 -0.0274267 0 0 -5.1365e-09 
170 1 0.000217295 -0.00012537 0.00166365 5e-05 0.00858678 -0.0131768 -0.0578005 0 0 -5.1365e-09 
86 1 0.000352117 -0.000180426 0.00147657 5e-05 0.0381424 0.00328324 -0.123122 0 0 -5.1365e-09 
78 1 0.000276022 -0.000238177 0.00161992 5e-05 0.0259027 -0.00987948 -0.0713997 0 0 -5.1365e-09 
121 1 0.000398122 -0.00022209 0.00162662 5e-05 0.0347923 0.0162625 -0.0737714 0 0 -5.1365e-09 
17 1 0.000336499 -0.000142372 0.00160852 5e-05 0.0308671 -0.0187166 -0.0964324 0 0 -5.1365e-09 
50 1 0.000471492 -0.000103606 0.00147607 5e-05 0.0391636 0.0406016 -0.0926424 0 0 -5.1365e-09 
136 1 0.000454582 -0.000151531 0.00157716 5e-05 0.0456526 -0.0507372 -0.120045 0 0 -5.1365e-09 
387 1 -0.000518577 2.07521e-05 0.00158311 5e-05 -0.0558195 0.0369029 -0.0771861 0 0 -5.1365e-09 
30 1 -0.000309416 -1.72765e-05 0.00163915 5e-05 -0.00779407 0.0304233 0.0043905 0 0 -5.1365e-09 
363 1 -0.000416825 6.90843e-06 0.00164469 5e-05 -0.0424021 0.00363287 -0.0730327 0 0 -5.1365e-09 
40 1 -0.000109035 -1.0354e-05 0.0015515 5e-05 0.00269388 -0.00492043 -0.00471442 0 0 -5.1365e-09 
564 1 -0.000194722 8.24809e-05 0.00158364 5e-05 -0.0332449 0.0256202 -0.038046 0 0 -5.1365e-09 
455 1 -0.000202248 -3.1123e-05 0.00163766 5e-05 0.00288832 0.00803973 0.00277219 0 0 -5.1365e-09 
359 1 -7.50086e-05 1.7416e-05 0.00164151 5e-05 0.0111438 0.00223364 0.00746439 0 0 -5.1365e-09 
124 1 -2.85443e-05 -7.2551e-05 0.00163088 5e-05 -0.00297577 -0.0121604 -0.00376775 0 0 -5.1365e-09 
446 1 3.19999e-05 2.57573e-06 0.00155106 5e-05 -0.00266228 0.00196693 0.0115669 0 0 -5.1365e-09 
169 1 9.85827e-06 7.19753e-05 0.00161961 5e-05 -0.00543717 0.00756591 -0.00982594 0 0 -5.1365e-09 
98 1 0.000109254 -8.23639e-05 0.00161437 5e-05 0.028929 -0.0550275 -0.0584574 -8.35724e-08 6.87923e-08 -7.36231e-07 
91 1 0.000195857 -5.55937e-05 0.0015417 5e-05 0.0386012 0.0115876 -0.021918 0 0 -5.1365e-09 
256 1 0.000239835 4.07227e-05 0.00155536 5e-05 0.0249249 -0.00498153 -0.00948115 0 0 -5.1365e-09 
158 1 0.000139003 2.62374e-05 0.00155257 5e-05 0.00506859 0.00435991 -0.0314287 0 0 -5.1365e-09 
454 1 0.000176384 -1.13354e-05 0.00165326 5e-05 0.0323 -0.0090983 -0.064283 0 0 -5.1365e-09 
287 1 0.000325504 2.65782e-05 0.00160636 5e-05 0.0419825 -0.0265715 -0.044442 0 0 -5.1365e-09 
459 1 0.000314515 -6.24399e-05 0.00154803 5e-05 0.0251964 -0.0113227 -0.0677977 0 0 -5.1365e-09 
441 1 0.000402094 -3.34622e-06 0.00152541 5e-05 0.0482085 0.00826703 -0.0820178 0 0 -5.1365e-09 
266 1 0.000491357 -1.65955e-05 0.00161518 5e-05 0.0428252 -0.0221988 -0.0748401 0 0 -5.1365e-09 
26 1 -0.000540574 0.000126214 0.0015353 5e-05 -0.072858 0.0459108 -0.0690612 0 0 -5.1365e-09 
463 1 -0.000505339 0.000204705 0.00146765 5e-05 -0.0490901 -0.00763903 -0.110428 0 0 -5.1365e-09 
49 1 -0.000417841 0.000178698 0.00154557 5e-05 -0.0437197 0.0429532 -0.087471 0 0 -5.1365e-09 
438 1 -0.000585095 0.000136411 0.0016438 5e-05 0.112331 -0.026144 -0.0268151 0 0 -5.1365e-09 
321 1 -0.00031389 8.6582e-05 0.00150988 5e-05 -0.0518833 -0.000129359 -0.106612 0 0 -5.1365e-09 
311 1 -0.000332446 0.000240123 0.00152056 5e-05 -0.0163862 0.0394397 -0.123183 0 0 -5.1365e-09 
383 1 -0.000318628 0.000122434 0.00162796 5e-05 -0.0103536 -0.00909665 -0.0785663 0 0 -5.1365e-09 
472 1 -8.31987e-05 9.03161e-05 0.00156964 5e-05 -0.00953314 -0.00986813 -0.0118055 0 0 -5.1365e-09 
213 1 -0.000237521 0.000172536 0.00152834 5e-05 -0.0165527 0.0342222 -0.0852734 0 0 -5.1365e-09 
364 1 -0.000136141 0.000168226 0.00160996 5e-05 -0.0319436 -0.00230731 -0.0470429 0 0 -5.1365e-09 
192 1 -1.13761e-05 0.000167098 0.00154999 5e-05 -0.00778299 0.0240949 -0.0133029 -8.66062e-08 -3.59746e-07 7.34912e-07 
280 1 -2.80338e-05 0.000234354 0.00162668 5e-05 -0.0139171 0.0221481 0.024737 0 0 -5.1365e-09 
499 1 9.74326e-05 0.000225473 0.00163144 5e-05 0.00389918 0.0217902 -0.0482762 0 0 -5.1365e-09 
406 1 8.14376e-05 0.000128626 0.00155008 5e-05 -0.011327 0.0320978 0.0233419 0 0 -5.1365e-09 
521 1 0.000163643 0.000231224 0.00155467 5e-05 0.0169453 -0.000366522 -0.00740959 0 0 -5.1365e-09 
161 1 0.000187266 0.000124243 0.00157813 5e-05 0.00124417 -0.0158757 -0.105384 0 0 -5.1365e-09 
66 1 0.000196292 0.000206343 0.00165433 5e-05 0.00389704 -0.0036659 -0.0266404 0 0 -5.1365e-09 
524 1 0.000113223 8.87763e-05 0.00163743 5e-05 0.0241334 -0.00553472 0.022603 0 0 -5.1365e-09 
134 1 0.000265932 0.000217404 0.00155126 5e-05 0.0229685 0.015467 -0.000114886 0 0 -5.1365e-09 
497 1 0.000372098 9.33306e-05 0.00154618 5e-05 0.0510408 0.0161356 -0.0120864 0 0 -5.1365e-09 
413 1 0.000374643 0.000196569 0.00155158 5e-05 -0.0209827 0.0145814 -0.0296261 0 0 -5.1365e-09 
225 1 0.000313173 0.000152759 0.00161886 5e-05 0.000173847 -0.0191216 0.0152766 0 0 -5.1365e-09 
84 1 0.000535067 8.11995e-05 0.00154917 5e-05 0.0553711 -0.00815469 -0.0056046 0 0 -5.1365e-09 
11 1 0.000445838 0.000130465 0.00162589 5e-05 0.0679482 -0.0312428 -0.0429402 0 0 -5.1365e-09 
282 1 0.000466597 0.000230107 0.00160384 5e-05 0.0156391 -0.0259796 -0.0234717 0 0 -5.1365e-09 
123 1 -0.000441176 0.000276434 0.0015261 5e-05 -0.0402047 -0.0218656 -0.119133 0 0 -5.1365e-09 
61 1 -0.000372386 0.000294324 0.0016075 5e-05 -0.0104283 -0.024093 -0.100767 0 0 -5.1365e-09 
388 1 -0.000277695 0.000350813 0.00158309 5e-05 -0.049881 -0.00567483 -0.101953 0 0 -5.1365e-09 
202 1 -0.000107442 0.000250883 0.00156044 5e-05 -0.0174581 0.03904 0.029976 0 0 -5.1365e-09 
33 1 -0.000132885 0.000347578 0.00155355 5e-05 -0.0179392 0.0363642 0.02934 0 0 -5.1365e-09 
507 1 -0.00020384 0.000281313 0.00158371 5e-05 -0.0528691 -0.017837 -0.0526755 0 0 -5.1365e-09 
435 1 -5.39636e-05 0.000409209 0.00155039 5e-05 0.00535096 0.0816919 0.0143819 0 0 -5.1365e-09 
273 1 3.28688e-05 0.000263989 0.00155293 5e-05 0.0220544 0.0339824 -0.00703309 0 0 -5.1365e-09 
394 1 -1.46403e-05 0.000335687 0.00161264 5e-05 0.00421953 0.0228237 -0.00171482 0 0 -5.1365e-09 
498 1 0.000221835 0.000304511 0.00160809 5e-05 0.0275213 0.0413568 -0.0317235 -3.89247e-07 1.343e-07 -9.03833e-08 
181 1 0.000120728 0.000321154 0.00159144 5e-05 0.00572523 0.025409 -0.0418552 0 0 -5.1365e-09 
140 1 0.000177213 0.000398459 0.00162206 5e-05 0.00695389 0.0495939 -0.0485657 0 0 -5.1365e-09 
450 1 0.000291508 0.000352033 0.00155397 5e-05 0.0225858 0.0861938 -0.031111 0 0 -5.1365e-09 
72 1 0.000316891 0.000276023 0.00162025 5e-05 0.0347058 0.0469951 -0.0400089 3.89247e-07 -1.343e-07 8.01103e-08 
290 1 0.000384329 0.000309364 0.00155302 5e-05 -0.0300533 0.0491029 0.00439214 0 0 -5.1365e-09 
74 1 0.000508819 0.000308594 0.00155845 5e-05 -0.0236235 -0.0035386 -0.0398231 0 0 -5.1365e-09 
244 1 0.000480875 0.000320628 0.00165609 5e-05 -0.00243496 -0.0234997 -0.0466428 0 0 -5.1365e-09 
393 1 -0.000411812 0.00040895 0.00153639 5e-05 0.00380682 -0.0317189 -0.100846 0 0 -5.1365e-09 
108 1 -0.000231399 0.000429798 0.00149952 5e-05 0.0348355 0.00435972 -0.0799756 0 0 -5.1365e-09 
389 1 -0.000348803 0.000493192 0.00160729 5e-05 -0.0535342 0.0119777 -0.0474276 0 0 -5.1365e-09 
540 1 -0.000243196 0.0005709 0.00160883 5e-05 0.0869015 -0.0835665 0.0174838 0 0 -5.1365e-09 
223 1 -0.000142348 0.000485345 0.00163681 5e-05 -0.036872 0.0498713 -0.0460864 0 0 -5.1365e-09 
174 1 6.40238e-05 0.000412423 0.0015551 5e-05 -0.0105975 0.0109619 0.0157164 0 0 -5.1365e-09 
548 1 2.92798e-05 0.000546838 0.00155233 5e-05 -0.0315245 0.0478293 -0.00639313 0 0 -5.1365e-09 
173 1 -5.41899e-05 0.000530371 0.00161813 5e-05 -0.0352208 0.0589276 0.00673933 0 0 -5.1365e-09 
88 1 9.03567e-06 0.000433863 0.00163592 5e-05 -0.0634209 0.0275401 -0.0163143 0 0 -5.1365e-09 
358 1 0.000197708 0.000445277 0.00152974 5e-05 0.00813854 0.013855 -0.0414521 0 0 -5.1365e-09 
502 1 0.000132568 0.00056653 0.00157013 5e-05 0.00130709 0.0570175 -0.0447033 0 0 -5.1365e-09 
494 1 0.000170272 0.000500139 0.00165359 5e-05 -0.0286494 0.0588316 -0.0265008 0 0 -5.1365e-09 
476 1 0.000267393 0.00053591 0.00157986 5e-05 -0.0514913 0.0189141 -0.0862714 0 0 -5.1365e-09 
228 1 0.000321718 0.000467915 0.00149311 5e-05 0.0338848 0.0470468 -0.099799 0 0 -5.1365e-09 
391 1 0.000390417 0.000434132 0.00163196 5e-05 -0.0113057 0.010446 0.0140299 0 0 -5.1365e-09 
67 1 -0.000417237 -0.000472625 0.0016557 5e-05 -0.0168495 -0.0347705 -0.0768823 0 0 -5.1365e-09 
516 1 -0.000434599 -0.000481158 0.00177131 5e-05 0.00972475 -0.0176116 -0.0401715 0 0 -5.1365e-09 
283 1 -0.000324389 -0.000432226 0.00169815 5e-05 0.0637755 -0.00543508 -0.0877424 0 0 -5.1365e-09 
207 1 -0.000170347 -0.000528912 0.00166243 5e-05 -0.0345519 -0.076019 -0.0329207 0 0 -5.1365e-09 
375 1 -0.000129845 -0.000427935 0.00173604 5e-05 -0.00612218 -0.0376711 -0.115702 0 0 -5.1365e-09 
556 1 -0.000239675 -0.000538001 0.00178557 5e-05 -0.0307664 -0.0626877 -0.0667889 0 0 -5.1365e-09 
569 1 -3.05728e-05 -0.000497414 0.00171057 5e-05 0.0160532 -0.0903642 -0.0606876 0 0 -5.1365e-09 
373 1 8.04973e-05 -0.000482978 0.00172328 5e-05 0.0356241 -0.0776733 -0.0143278 0 0 -5.1365e-09 
14 1 8.92562e-06 -0.000430503 0.00178636 5e-05 -0.00244745 -0.02646 -0.0327637 -5.61259e-07 -1.17927e-07 -3.24084e-06 
513 1 0.000195612 -0.000490736 0.00172333 5e-05 0.0170977 -0.0715395 -0.000876739 0 0 -5.1365e-09 
316 1 0.000333742 -0.000438513 0.0016786 5e-05 -0.0564044 0.00837131 -0.0882097 0 0 -5.1365e-09 
255 1 0.000302674 -0.000474171 0.00177995 5e-05 0.0248034 -0.0365077 -0.0966435 0 0 -5.1365e-09 
159 1 0.000454266 -0.000422264 0.00165724 5e-05 0.0239125 0.0111431 -0.115168 0 0 -5.1365e-09 
166 1 0.000418294 -0.000413826 0.00175591 5e-05 -0.0230758 0.024328 -0.0635685 0 0 -5.1365e-09 
51 1 -0.000463329 -0.000265121 0.00171068 5e-05 -0.0163852 0.051566 -0.0579927 0 0 -5.1365e-09 
514 1 -0.000496256 -0.000368578 0.00167418 5e-05 0.0384484 0.0283497 -0.0394099 0 0 -5.1365e-09 
237 1 -0.000431524 -0.000375424 0.00176504 5e-05 0.00527262 0.000176534 0.0162865 0 0 -5.1365e-09 
167 1 -0.000239828 -0.000278833 0.00172183 5e-05 0.0170604 -0.0311092 -0.0133675 0 0 -5.1365e-09 
295 1 -0.000385179 -0.000261725 0.00177936 5e-05 -0.0270477 0.0306366 -0.0234141 0 0 -5.1365e-09 
284 1 -0.000239792 -0.000386477 0.00172898 5e-05 -0.0152617 -0.0301424 -0.0769576 0 0 -5.1365e-09 
4 1 -0.000152592 -0.000330792 0.00171374 5e-05 0.0237713 0.00350254 -0.0715904 0 0 -5.1365e-09 
313 1 -0.000122045 -0.000237607 0.00173986 5e-05 0.0171515 -0.00958948 -0.0469722 0 0 -5.1365e-09 
554 1 6.30957e-06 -0.000253255 0.00168046 5e-05 0.00713375 -0.0189591 -0.0847277 0 0 -5.1365e-09 
203 1 4.20415e-05 -0.000346568 0.00172159 5e-05 0.00637792 0.00655547 -0.00986885 0 0 -5.1365e-09 
41 1 -4.43212e-05 -0.000302732 0.0017517 5e-05 -0.0458349 -0.0502248 -0.0526194 0 0 -5.1365e-09 
511 1 0.000149084 -0.000402345 0.00172935 5e-05 -0.00881695 -0.0410621 -0.0229938 0 0 -5.1365e-09 
114 1 0.000224456 -0.000308156 0.00171512 5e-05 0.00126683 -0.0383581 -0.0916871 0 0 -5.1365e-09 
102 1 0.000230286 -0.000388567 0.00178765 5e-05 -0.00581341 -0.016266 -0.0893714 0 0 -5.1365e-09 
361 1 0.000137067 -0.000312874 0.00177613 5e-05 0.00289019 -0.0141725 -0.0872336 0 0 -5.1365e-09 
35 1 0.000425282 -0.000310415 0.00168593 5e-05 0.0267153 0.0125813 -0.11489 -5.56225e-08 4.10299e-09 -2.85617e-07 
355 1 -0.000551897 -0.000109412 0.00171261 5e-05 -0.075466 0.0187219 -0.0536402 0 0 -5.1365e-09 
400 1 -0.000326427 -0.000204359 0.00169954 5e-05 0.0317418 0.0175522 -0.00732326 0 0 -5.1365e-09 
160 1 -0.000391731 -8.86512e-05 0.00170228 5e-05 -0.0290674 0.00886037 -0.113452 0 0 -5.1365e-09 
544 1 -0.000245803 -0.000178002 0.00175431 5e-05 -0.00664235 -0.0181935 -0.0131382 0 0 -5.1365e-09 
271 1 -0.000156194 -0.000139572 0.00173109 5e-05 0.0189842 0.00688386 0.0184199 0 0 -5.1365e-09 
246 1 -7.7955e-05 -0.000115231 0.00179075 5e-05 -0.00434485 0.0118078 -0.0686601 0 0 -5.1365e-09 
20 1 2.10337e-05 -0.000135633 0.00171632 5e-05 -0.030012 -0.00394281 -0.0235858 1.44666e-07 1.91126e-07 3.7306e-07 
104 1 -6.37382e-05 -0.000181621 0.00167598 5e-05 -0.0252688 -0.0236963 -0.0282457 0 0 -5.1365e-09 
279 1 4.29458e-05 -0.000211436 0.00177887 5e-05 -0.00922727 -0.00773321 -0.0158315 0 0 -5.1365e-09 
510 1 6.97159e-05 -0.000111599 0.00180027 5e-05 -0.0109749 0.023793 -0.017247 2.39587e-07 -5.78517e-08 2.5152e-07 
77 1 0.000134282 -8.49472e-05 0.00171111 5e-05 0.0238569 0.0226761 -0.0300161 8.35724e-08 -6.87923e-08 7.25958e-07 
155 1 0.000205104 -0.000188097 0.00175511 5e-05 0.0400973 -0.0179732 -0.0782404 0 0 -5.1365e-09 
330 1 0.00028354 -0.000113978 0.00174047 5e-05 0.0354251 0.000282278 -0.0864363 0 0 -5.1365e-09 
274 1 0.00039775 -0.000224208 0.00174952 5e-05 0.0459231 -0.0344298 -0.0931231 0 0 -5.1365e-09 
340 1 0.0003877 -0.00010595 0.00175417 5e-05 0.0233441 0.0171909 -0.0939718 0 0 -5.1365e-09 
447 1 0.000469065 -0.000162269 0.00168707 5e-05 0.0293801 -0.0326467 -0.0951688 0 0 -5.1365e-09 
45 1 -0.000469541 -1.45235e-05 0.00173655 5e-05 -0.0397178 -0.0190884 -0.0957284 0 0 -5.1365e-09 
204 1 -0.000241467 7.92846e-06 0.00176523 5e-05 -0.000870006 -0.00218415 -0.0715699 0 0 -5.1365e-09 
142 1 -0.00019926 8.02404e-05 0.00170404 5e-05 -0.0198473 0.00952028 -0.0725151 0 0 -5.1365e-09 
484 1 -0.000114934 -4.61994e-05 0.00170931 5e-05 -0.0307713 0.0455121 -0.0421436 0 0 -5.1365e-09 
32 1 -8.53072e-05 8.28263e-05 0.00176145 5e-05 0.024063 0.0187333 -0.0449657 0 0 -5.1365e-09 
360 1 -0.000145139 -4.20826e-05 0.00180488 5e-05 -0.0346391 -0.00657012 -0.0546555 0 0 -5.1365e-09 
559 1 5.46315e-05 -1.33249e-05 0.00166344 5e-05 0.0286021 -0.00880827 -0.0329383 0 0 -5.1365e-09 
54 1 2.69749e-05 6.32635e-05 0.00172841 5e-05 0.0123017 0.00656612 -0.0774912 0 0 -5.1365e-09 
440 1 -1.9003e-05 -4.64426e-05 0.00174281 5e-05 0.00662946 0.0267131 -0.0411565 0 0 -5.1365e-09 
64 1 0.000129701 4.98166e-05 0.00172874 5e-05 -0.00787699 -0.00410058 -0.0482807 0 0 -5.1365e-09 
504 1 0.000213987 -2.50082e-05 0.00174818 5e-05 0.0527305 0.0124901 -0.033275 0 0 -5.1365e-09 
261 1 0.000287649 -4.96711e-05 0.00166272 5e-05 0.0354278 -0.0169747 -0.0316446 0 0 -5.1365e-09 
457 1 0.000387685 -6.47551e-05 0.00164961 5e-05 0.037241 0.00573042 -0.0985454 0 0 -5.1365e-09 
34 1 0.00030621 1.1212e-05 0.00176362 5e-05 -0.00498028 -0.00117563 -0.0476396 0 0 -5.1365e-09 
208 1 0.000555063 5.49537e-05 0.00166777 5e-05 0.0850209 -0.0191799 -0.101071 0 0 -5.1365e-09 
479 1 0.000413028 3.38024e-05 0.00175212 5e-05 0.0301744 -0.00332111 -0.0912205 0 0 -5.1365e-09 
75 1 -0.000429981 0.000105815 0.00169987 5e-05 -0.0467964 0.0357773 -0.113094 0 0 -5.1365e-09 
351 1 -0.000492912 0.000195224 0.00169567 5e-05 -0.0739035 0.0303407 -0.0920357 0 0 -5.1365e-09 
324 1 -0.000302336 0.000192598 0.00172475 5e-05 -0.0832485 0.0432462 -0.0478479 0 0 -5.1365e-09 
421 1 -0.000395316 0.000206551 0.00167227 5e-05 -0.0496063 0.00613744 -0.0856228 0 0 -5.1365e-09 
214 1 -0.000254096 0.000121576 0.00178032 5e-05 -0.0234615 0.0428007 -0.0529527 0 0 -5.1365e-09 
347 1 -0.00021598 0.00018736 0.0016696 5e-05 -0.0248536 -0.00041066 -0.0677015 0 0 -5.1365e-09 
481 1 -0.000106317 0.000211494 0.00169521 5e-05 -0.0651587 0.0152825 -0.0371585 0 0 -5.1365e-09 
431 1 -0.000156756 0.000159006 0.00176968 5e-05 -0.00382955 0.0116362 -0.125527 0 0 -5.1365e-09 
428 1 -6.53711e-05 0.000120737 0.00166448 5e-05 0.00864363 0.0201972 -0.030997 0 0 -5.1365e-09 
259 1 3.18516e-05 0.000157797 0.00166701 5e-05 0.014071 0.0140922 -0.0402929 0 0 -5.1365e-09 
543 1 -2.30662e-05 0.00016639 0.00175564 5e-05 -0.0288629 0.0368909 -0.0284218 0 0 -5.1365e-09 
82 1 0.000224576 9.2383e-05 0.00167883 5e-05 0.0364809 -0.00670541 -0.0884936 0 0 -5.1365e-09 
570 1 0.000124216 0.000170397 0.00171524 5e-05 0.0207485 0.00411511 -0.0192093 0 0 -5.1365e-09 
231 1 0.000102195 0.000218953 0.0018006 5e-05 0.00824313 0.0376151 -0.0814355 0 0 -5.1365e-09 
272 1 0.000193811 0.000117531 0.00177081 5e-05 0.00639997 -0.0135389 -0.0371009 0 0 -5.1365e-09 
346 1 0.000369635 9.87331e-05 0.00168378 5e-05 0.0513707 -0.0513434 -0.0337085 0 0 -5.1365e-09 
371 1 0.000283065 0.000207048 0.00170815 5e-05 0.0369035 0.00935587 -0.0162887 0 0 -5.1365e-09 
547 1 0.000297188 0.000114301 0.00175125 5e-05 0.00222701 -0.00614745 -0.054888 0 0 -5.1365e-09 
135 1 0.000414915 0.000172115 0.00174397 5e-05 0.050739 0.0318486 -0.0116062 0 0 -5.1365e-09 
175 1 0.000523201 0.000167943 0.00169496 5e-05 0.0804865 -0.0101211 -0.0093663 0 0 -5.1365e-09 
189 1 0.000510043 0.000142066 0.00179645 5e-05 0.050334 0.0031835 -0.0450836 0 0 -5.1365e-09 
226 1 -0.000458562 0.000303527 0.00167904 5e-05 -0.0573986 -0.0106012 -0.075139 0 0 -5.1365e-09 
126 1 -0.000278561 0.000262936 0.00164946 5e-05 -0.0106243 0.0166238 -0.113681 0 0 -5.1365e-09 
47 1 -0.000345852 0.000330899 0.00171043 5e-05 -0.0298489 0.0210278 -0.0875195 0 0 -5.1365e-09 
87 1 -0.00020051 0.000394077 0.00163116 5e-05 -0.0704331 0.0315374 -0.09467 0 0 -5.1365e-09 
116 1 -0.000230671 0.000375077 0.00172669 5e-05 -0.0308917 -0.0051797 -0.0912915 0 0 -5.1365e-09 
117 1 -0.000101683 0.000265969 0.0017804 5e-05 -0.0262993 0.00696438 -0.0357087 0 0 -5.1365e-09 
129 1 -0.000202617 0.000272947 0.00172983 5e-05 0.0141339 0.0293099 -0.0957856 0 0 -5.1365e-09 
163 1 3.54143e-05 0.000245238 0.00171614 5e-05 -0.00964064 -0.00219723 -0.0863321 0 0 -5.1365e-09 
535 1 7.8666e-05 0.000332285 0.00168265 5e-05 -0.00286475 0.0336698 -0.0616475 0 0 -5.1365e-09 
565 1 -6.26165e-05 0.000303153 0.00169435 5e-05 -0.0473146 0.00653021 -0.0567364 0 0 -5.1365e-09 
56 1 -2.20717e-05 0.000349211 0.00177969 5e-05 -0.00381114 -0.024969 -0.0841881 0 0 -5.1365e-09 
300 1 0.000164597 0.000272377 0.0017373 5e-05 -0.0186945 -0.00186588 -0.0851008 0 0 -5.1365e-09 
106 1 0.000160792 0.000395962 0.00172136 5e-05 -0.00276215 0.0267907 -0.11195 0 0 -5.1365e-09 
436 1 9.24253e-05 0.000341675 0.00178155 5e-05 0.00345728 0.0339997 -0.027215 0 0 -5.1365e-09 
444 1 0.000395522 0.000258946 0.00169528 5e-05 0.0523563 -0.0139262 -0.0297777 0 0 -5.1365e-09 
71 1 0.000357869 0.000363373 0.00169948 5e-05 0.0291432 0.0185943 -0.0350493 0 0 -5.1365e-09 
566 1 0.000260281 0.000327157 0.00170602 5e-05 0.0167043 0.0437222 -0.0302232 0 0 -5.1365e-09 
120 1 0.000324741 0.000283809 0.00177185 5e-05 0.00964456 0.0192987 -0.0807623 0 0 -5.1365e-09 
44 1 0.000486018 0.000269294 0.00176988 5e-05 0.0301006 0.0154482 -0.0211173 0 0 -5.1365e-09 