ITEM: TIMESTEP
30000
ITEM: NUMBER OF ATOMS
423
ITEM: BOX BOUNDS ff ff ff
-0.001 0.001
-0.001 0.001
0 0.004
ITEM: ATOMS id type x y z radius vx vy vz fx fy fz 
204 1 -3.00853e-05 -0.000250325 4.54535e-05 5e-05 0.00647877 0.0272051 -0.100362 0 0 -5.1365e-09 
9 1 0.000118547 -0.000235057 0.000111279 5e-05 -0.0368341 0.0596762 -0.0552417 0 0 -5.1365e-09 
429 1 -0.000197284 -0.000128513 2.41042e-05 5e-05 0.0417827 0.0332985 -0.0939338 0 0 -5.1365e-09 
227 1 -0.000108749 -0.000186594 1.04779e-05 5e-05 0.0156317 -0.0179431 -0.138852 0 0 -5.1365e-09 
168 1 6.05338e-05 -0.000198097 2.41676e-05 5e-05 0.0333157 -0.0036013 -0.135821 0 0 -5.1365e-09 
312 1 -3.58721e-05 -0.000121061 0.000102054 5e-05 0.0312835 0.0268752 -0.119997 0 0 -5.1365e-09 
317 1 8.5202e-05 -0.000133398 0.000108016 5e-05 0.0165937 0.0206329 -0.122468 0 0 -5.1365e-09 
159 1 0.000252387 -9.68242e-05 0.000137072 5e-05 -0.0219232 0.0147567 -0.10687 0 0 -5.1365e-09 
438 1 -0.000231655 -2.63094e-05 4.85237e-06 5e-05 -0.00768804 0.0201105 -0.128649 0 0 -5.1365e-09 
226 1 -0.00026647 2.3504e-05 0.000101653 5e-05 0.03379 -0.00780185 -0.0767898 0 0 -5.1365e-09 
103 1 -0.000136714 -4.49154e-05 4.39579e-05 5e-05 -0.0224131 -0.0131856 -0.119119 0 0 -5.1365e-09 
431 1 -0.000113856 4.58106e-05 2.95863e-07 5e-05 -0.0297013 0.00689174 -0.171981 0 0 -5.1365e-09 
506 1 -0.000156891 4.07696e-05 9.78396e-05 5e-05 0.0306413 0.0417864 -0.13823 0 0 -5.1365e-09 
155 1 -2.91559e-05 -4.0123e-05 3.90548e-05 5e-05 0.0508577 -0.0110986 -0.147849 0 0 -5.1365e-09 
135 1 -3.61025e-05 6.57359e-05 0.000148185 5e-05 -0.026864 0.00845946 -0.144591 4.81275e-07 -9.5727e-08 -1.9106e-07 
325 1 7.80748e-05 -4.08691e-05 6.27774e-05 5e-05 -0.00501564 0.0366447 -0.12057 0 0 -5.1365e-09 
266 1 0.000113465 4.43824e-05 2.29536e-05 5e-05 0.0171432 0.0413573 -0.160323 0 0 -5.1365e-09 
447 1 0.00022201 6.54151e-05 3.00436e-05 5e-05 -0.0349395 -0.000976289 -0.0731854 0 0 -5.1365e-09 
467 1 0.000171506 -5.13479e-05 9.78001e-05 5e-05 -0.0364336 0.00787609 -0.136001 0 0 -5.1365e-09 
476 1 -0.000175233 0.000161679 7.34478e-05 5e-05 -0.00740534 -0.0457991 -0.0814001 0 0 -5.1365e-09 
225 1 -1.57162e-05 0.000148048 1.91904e-05 5e-05 -0.0545276 -0.0190325 -0.0991297 0 0 -5.1365e-09 
34 1 -1.13284e-06 0.00017286 0.000125637 5e-05 -0.0563252 -0.0449266 -0.149062 0 0 -5.1365e-09 
512 1 0.00019555 8.8731e-05 0.00014301 5e-05 -0.0192951 0.0406997 -0.15752 0 0 -5.1365e-09 
195 1 9.94644e-05 0.000137245 6.35662e-05 5e-05 -0.0206064 -0.000106073 -0.15025 0 0 -5.1365e-09 
244 1 1.06027e-05 0.000270991 0.000146883 5e-05 -0.0255957 -0.00475584 -0.0461616 0 0 -5.1365e-09 
74 1 8.99376e-05 0.000241266 6.40392e-05 5e-05 0.00536525 -0.0248634 -0.0657019 0 0 -5.1365e-09 
191 1 -4.85192e-05 -0.000263287 0.000204927 5e-05 0.0275835 0.0700895 -0.0582291 0 0 -5.1365e-09 
397 1 -0.000109882 -0.000113008 0.000218991 5e-05 -0.0106116 -0.0011339 -0.0706111 0 0 -5.1365e-09 
532 1 -0.000207093 -0.000105284 0.000289074 5e-05 0.0396087 -0.00100485 -0.14589 0 0 -5.1365e-09 
337 1 -0.000181953 -0.000203657 0.000242069 5e-05 0.0136417 -0.0143888 -0.108148 0 0 -5.1365e-09 
536 1 6.82279e-05 -0.000220665 0.000207528 5e-05 0.019357 -0.0118107 -0.0913695 0 0 -5.1365e-09 
107 1 3.27146e-05 -9.16502e-05 0.000296382 5e-05 -0.0116229 0.00826722 -0.146831 0 0 -5.1365e-09 
295 1 -3.02217e-05 -0.000183666 0.00027729 5e-05 0.0194704 0.0181195 -0.107619 0 0 -5.1365e-09 
42 1 0.000142369 -0.0001282 0.00019373 5e-05 -0.0134446 0.00656806 -0.120877 0 0 -5.1365e-09 
258 1 0.000238386 -8.48529e-05 0.000268501 5e-05 -0.000439176 0.0174653 -0.138854 0 0 -5.1365e-09 
351 1 -0.000254634 2.51498e-05 0.000203837 5e-05 0.0578139 -0.0196388 -0.0742695 0 0 -5.1365e-09 
111 1 -0.000307187 -3.4513e-05 0.000303759 5e-05 0.0459216 0.0131085 -0.0941248 0 0 -5.1365e-09 
329 1 -9.56483e-05 -2.77899e-05 0.000156963 5e-05 0.0358056 -0.0251687 -0.118009 0 0 -5.1365e-09 
355 1 -0.000170294 -2.4402e-05 0.000242179 5e-05 0.00775589 0.0217241 -0.0837294 0 0 -5.1365e-09 
304 1 5.68423e-05 -2.94363e-05 0.000174822 5e-05 -0.0162219 0.0216947 -0.105232 0 0 -5.1365e-09 
233 1 6.1674e-05 2.18073e-05 0.000302287 5e-05 -0.0626452 0.0101705 -0.0908659 0 0 -5.1365e-09 
296 1 0.000138734 -6.20897e-05 0.000271777 5e-05 -0.0521175 0.0200198 -0.0853571 0 0 -5.1365e-09 
11 1 0.000206674 6.85441e-05 0.000277125 5e-05 -0.00776198 -0.0433011 -0.127778 0 0 -5.1365e-09 
208 1 0.000268132 2.48976e-05 0.000181641 5e-05 -0.0310961 0.0343035 -0.0970589 0 0 -5.1365e-09 
297 1 -0.000215693 0.000155195 0.000205771 5e-05 -0.0158408 -0.0426285 -0.1265 0 0 -5.1365e-09 
174 1 -0.000102327 8.03032e-05 0.000221667 5e-05 0.0489862 -0.0354151 -0.137648 -4.81275e-07 9.5727e-08 1.80787e-07 
502 1 -0.0001476 0.000215448 0.000299637 5e-05 -0.00465589 -0.042876 -0.0720718 0 0 -5.1365e-09 
205 1 3.31434e-05 0.000102106 0.000220638 5e-05 7.97855e-05 0.00519514 -0.0977422 0 0 -5.1365e-09 
547 1 -7.65047e-05 0.000177576 0.000194849 5e-05 -0.0340183 -0.0316696 -0.0899272 0 0 -5.1365e-09 
371 1 3.04189e-05 0.000208285 0.000255142 5e-05 -0.00198442 -0.0112104 -0.108389 0 0 -5.1365e-09 
282 1 0.000150237 0.000226907 0.000163756 5e-05 -0.0205854 0.0115912 -0.126064 0 0 -5.1365e-09 
413 1 -3.8377e-05 0.000293145 0.000299622 5e-05 -0.0370066 0.0158684 -0.0739539 0 0 -5.1365e-09 
514 1 -0.000119992 -0.00026069 0.000355257 5e-05 0.0284702 -0.0198007 -0.0817834 0 0 -5.1365e-09 
29 1 -0.000188895 -0.000241628 0.00045561 5e-05 0.0368964 0.0315822 -0.0876586 0 0 -5.1365e-09 
400 1 -2.55811e-06 -0.000292656 0.000369488 5e-05 0.0474757 0.0427555 -0.0911707 0 0 -5.1365e-09 
382 1 0.000155466 -0.000249604 0.000325468 5e-05 0.00478109 0.0206207 -0.160632 0 0 -5.1365e-09 
83 1 -0.000264809 -0.000167155 0.000437554 5e-05 0.0253122 0.0126566 -0.125731 0 0 -5.1365e-09 
82 1 -5.37075e-05 -0.00020723 0.000414736 5e-05 0.090678 0.0333743 -0.100224 0 0 -5.1365e-09 
465 1 0.000105293 -8.03575e-05 0.00045479 5e-05 0.00638556 -0.066665 -0.109703 0 0 -5.1365e-09 
215 1 0.000257547 -0.000143925 0.000354522 5e-05 -0.0170347 -0.0154585 -0.102423 0 0 -5.1365e-09 
408 1 -0.000266111 5.09097e-05 0.000343511 5e-05 0.0520088 0.0270777 -0.133718 0 0 -5.1365e-09 
360 1 -0.00017651 -5.89566e-05 0.000404737 5e-05 0.0488562 -0.0333324 -0.161046 0 0 -5.1365e-09 
316 1 3.41274e-05 -1.20982e-05 0.000424142 5e-05 -0.0356737 0.00944897 -0.113908 0 0 -5.1365e-09 
272 1 0.00013099 1.64615e-05 0.000422944 5e-05 -0.0272416 -0.0355825 -0.138953 0 0 -5.1365e-09 
179 1 -0.000168682 8.1702e-05 0.000311304 5e-05 0.0274836 0.0464418 -0.124885 0 0 -5.1365e-09 
394 1 2.15178e-06 0.000107625 0.000374744 5e-05 0.0044667 0.0698973 -0.1387 0 0 -5.1365e-09 
72 1 0.000101509 0.000116384 0.000346155 5e-05 -0.0868847 -0.0246249 -0.121582 0 0 -5.1365e-09 
175 1 0.000267997 0.000117247 0.000382229 5e-05 -0.0462563 -0.0380903 -0.101961 0 0 -5.1365e-09 
218 1 -9.2423e-05 0.000245053 0.000387772 5e-05 -0.00246835 -0.0110597 -0.142409 0 0 -5.1365e-09 
444 1 0.000164028 0.000243678 0.00043095 5e-05 -0.0353478 -0.0012591 -0.0558742 0 0 -5.1365e-09 
237 1 -0.000252077 -0.000238159 0.000564649 5e-05 0.0478059 0.0270962 -0.0844496 0 0 -5.1365e-09 
68 1 3.56187e-05 -0.00035634 0.000562566 5e-05 0.0225408 0.0605155 -0.0576798 0 0 -5.1365e-09 
113 1 0.000110571 -0.000311381 0.000486355 5e-05 0.0326863 0.0560904 -0.0713019 0 0 -5.1365e-09 
368 1 0.000100744 -0.000239747 0.000562616 5e-05 0.0154831 0.0269512 -0.144527 0 0 -5.1365e-09 
336 1 -0.00012115 -0.000154699 0.000501228 5e-05 0.0187789 -0.0132343 -0.128223 0 0 -5.1365e-09 
63 1 -0.000223484 -0.000137317 0.000552293 5e-05 0.0091755 0.0167758 -0.138693 0 0 -5.1365e-09 
343 1 -4.52123e-05 -8.47302e-05 0.000532748 5e-05 0.0334826 0.0442827 -0.10977 0 0 -5.1365e-09 
298 1 0.000225908 -0.000170446 0.000533062 5e-05 -0.00665482 0.0310319 -0.155951 0 0 -5.1365e-09 
27 1 0.000253785 -8.42621e-05 0.000462448 5e-05 -0.0487529 -0.00421147 -0.12838 0 0 -5.1365e-09 
166 1 0.000315767 -0.000128245 0.000590258 5e-05 -0.00035954 0.0100566 -0.110564 0 0 -5.1365e-09 
339 1 -0.000315745 4.61643e-05 0.00046366 5e-05 0.0244907 -0.00643847 -0.133164 0 0 -5.1365e-09 
46 1 -0.000307236 -6.27005e-05 0.000567599 5e-05 0.00146151 0.00356957 -0.0950488 0 0 -5.1365e-09 
80 1 -0.000188184 -4.2711e-05 0.000530878 5e-05 0.0289388 -0.0534337 -0.157805 0 0 -5.1365e-09 
515 1 0.000122504 -1.61075e-05 0.000549777 5e-05 -0.0435154 -0.0279591 -0.128569 0 0 -5.1365e-09 
194 1 0.000361251 -3.23312e-05 0.00054615 5e-05 -0.0207713 -0.0280204 -0.105343 0 0 -5.1365e-09 
21 1 0.000240414 5.70315e-05 0.00053111 5e-05 -0.041207 -0.0254867 -0.148621 0 0 -5.1365e-09 
267 1 -0.000274245 0.000120439 0.000574329 5e-05 0.0282425 -0.000550493 -0.13567 0 0 -5.1365e-09 
494 1 -0.000101219 0.000149089 0.000527315 5e-05 0.0275145 -0.00243616 -0.117608 0 0 -5.1365e-09 
88 1 -0.000221871 0.000140712 0.000473764 5e-05 0.000313145 -0.042889 -0.132058 0 0 -5.1365e-09 
76 1 -0.000161846 8.23158e-05 0.000575539 5e-05 0.0145619 -0.00304632 -0.107525 0 0 -5.1365e-09 
458 1 6.18097e-05 0.000102402 0.000499266 5e-05 -0.0473612 -0.0234393 -0.152155 0 0 -5.1365e-09 
134 1 -3.89018e-05 0.000228486 0.000587475 5e-05 -0.00361864 -0.0445322 -0.10755 0 0 -5.1365e-09 
120 1 0.000111104 0.000137607 0.000600918 5e-05 -0.0716701 -0.011229 -0.112052 0 0 -5.1365e-09 
419 1 0.000287877 0.000184872 0.000608823 5e-05 -0.0259598 -0.0112564 -0.092889 0 0 -5.1365e-09 
273 1 -0.000135551 0.000286714 0.000578808 5e-05 0.0297694 0.0188003 -0.142583 0 0 -5.1365e-09 
548 1 -6.32018e-05 0.000310349 0.000473534 5e-05 -0.0045749 0.00448365 -0.094718 0 0 -5.1365e-09 
290 1 0.000120072 0.000260371 0.000547087 5e-05 -0.0455723 -0.0206785 -0.0892037 0 0 -5.1365e-09 
112 1 -0.000116623 -0.000297724 0.000622322 5e-05 0.0165871 0.0173441 -0.144361 0 0 -5.1365e-09 
207 1 5.62908e-05 -0.00031755 0.000664733 5e-05 0.00118351 0.0297266 -0.121217 0 0 -5.1365e-09 
283 1 -1.82033e-05 -0.000370785 0.000739702 5e-05 0.0425795 0.0337788 -0.0865541 0 0 -5.1365e-09 
553 1 0.000170893 -0.00030037 0.000638458 5e-05 0.0112213 -0.00570273 -0.0859009 0 0 -5.1365e-09 
430 1 -0.000296822 -0.00022665 0.000732606 5e-05 0.0449517 0.0122354 -0.0935427 0 0 -5.1365e-09 
333 1 -0.00024097 -9.18326e-05 0.000696435 5e-05 0.0296516 0.00274716 -0.14029 0 0 -5.1365e-09 
18 1 -0.000179055 -0.000206059 0.000635628 5e-05 0.0153217 0.00152695 -0.137803 0 0 -5.1365e-09 
43 1 -6.89157e-05 -0.000205828 0.000680823 5e-05 0.0390773 0.0183366 -0.117458 0 0 -5.1365e-09 
345 1 0.000221343 -0.000127176 0.00064616 5e-05 -0.0408314 -0.00139129 -0.11814 0 0 -5.1365e-09 
131 1 0.000121616 -0.000168298 0.000727984 5e-05 -0.00678974 0.0201539 -0.127671 0 0 -5.1365e-09 
294 1 0.000361155 -0.00010028 0.000702981 5e-05 -0.0229518 -0.00997665 -0.0996858 0 0 -5.1365e-09 
334 1 -0.00028965 5.90598e-06 0.000644713 5e-05 0.0319676 0.0122033 -0.126458 0 0 -5.1365e-09 
263 1 -8.56151e-05 3.2007e-06 0.000618591 5e-05 0.0383109 0.0330885 -0.118211 0 0 -5.1365e-09 
568 1 0.00020928 -1.7344e-05 0.000652979 5e-05 -0.0279545 0.0156505 -0.128475 0 0 -5.1365e-09 
143 1 0.00031013 2.67777e-05 0.000705963 5e-05 -0.043058 0.0286061 -0.148842 0 0 -5.1365e-09 
184 1 -0.000353696 8.32476e-05 0.000689642 5e-05 0.00688492 -0.00190598 -0.116765 0 0 -5.1365e-09 
210 1 -0.00028167 0.000151627 0.000740054 5e-05 0.0474566 -0.00452607 -0.0881163 0 0 -5.1365e-09 
66 1 -1.11763e-05 0.000147782 0.00064092 5e-05 -0.0615148 -0.0509482 -0.111845 0 0 -5.1365e-09 
466 1 0.000224598 9.11514e-05 0.000649361 5e-05 -0.0392831 -0.0165533 -0.132069 0 0 -5.1365e-09 
164 1 0.000181766 0.00017161 0.00072752 5e-05 -0.0223012 -0.0334606 -0.139224 0 0 -5.1365e-09 
44 1 0.000323259 0.00013499 0.00070354 5e-05 -0.0344404 -0.0114968 -0.116327 0 0 -5.1365e-09 
435 1 -9.87933e-05 0.000317672 0.000694828 5e-05 0.0372628 -0.037918 -0.0846018 0 0 -5.1365e-09 
450 1 1.35763e-07 0.00032667 0.000718856 5e-05 -0.0401779 -0.024089 -0.107576 0 0 -5.1365e-09 
391 1 0.00012481 0.000294655 0.00064218 5e-05 -0.0321854 -0.0249667 -0.0929693 0 0 -5.1365e-09 
71 1 0.000152671 0.000303527 0.000756009 5e-05 -0.0302316 -0.010062 -0.116491 0 0 -5.1365e-09 
16 1 0.000281654 0.000258656 0.000751559 5e-05 -0.027453 -0.00158203 -0.105335 0 0 -5.1365e-09 
516 1 -9.58372e-05 -0.000398294 0.000804409 5e-05 0.0445603 0.0146547 -0.0923282 0 0 -5.1365e-09 
417 1 -0.00026401 -0.000311296 0.000885259 5e-05 0.0293068 0.0105559 -0.0941384 0 0 -5.1365e-09 
99 1 -0.000152632 -0.000329297 0.000880835 5e-05 0.0275511 0.0373777 -0.0852558 0 0 -5.1365e-09 
188 1 0.000133227 -0.000242313 0.000820827 5e-05 -0.0186542 0.0320422 -0.106475 0 0 -5.1365e-09 
373 1 0.000176132 -0.000372761 0.000884689 5e-05 -0.00818283 0.0452022 -0.0873853 0 0 -5.1365e-09 
31 1 -0.000385584 -0.0001514 0.000852938 5e-05 0.0401673 0.0240787 -0.0828185 0 0 -5.1365e-09 
269 1 -0.000234019 -0.000149464 0.000799423 5e-05 0.0636584 0.00731497 -0.130902 0 0 -5.1365e-09 
154 1 -0.000107332 -0.000207348 0.000917382 5e-05 0.0509797 0.00537622 -0.115336 0 0 -5.1365e-09 
236 1 0.000326552 -0.000142668 0.000850661 5e-05 -0.0113738 0.0526362 -0.0847412 0 0 -5.1365e-09 
511 1 0.000265067 -0.000219179 0.00088071 5e-05 -0.0358144 -0.00755177 -0.0920476 0 0 -5.1365e-09 
409 1 -0.000316821 -3.37491e-05 0.000774889 5e-05 0.0462669 0.0151211 -0.11272 0 0 -5.1365e-09 
280 1 -0.000288369 7.52796e-05 0.000891992 5e-05 1.4403e-05 -0.0384186 -0.109058 0 0 -5.1365e-09 
270 1 -0.000198008 -5.89708e-05 0.000836659 5e-05 0.0256065 0.00906186 -0.128768 0 0 -5.1365e-09 
189 1 0.000247111 3.84936e-05 0.000809719 5e-05 -0.0431665 -3.87156e-05 -0.103093 0 0 -5.1365e-09 
407 1 0.000430024 -2.42575e-05 0.000827427 5e-05 -0.0198848 -0.0182394 -0.104363 0 0 -5.1365e-09 
520 1 0.000325255 0.000169355 0.000810867 5e-05 -0.0163966 -0.030701 -0.121999 0 0 -5.1365e-09 
176 1 0.000278262 0.000216407 0.000889953 5e-05 -0.0418957 -0.0145948 -0.129892 0 0 -5.1365e-09 
500 1 0.000411716 0.000137118 0.000907279 5e-05 -0.0166392 0.0207208 -0.135305 0 0 -5.1365e-09 
56 1 -0.000149367 0.000351295 0.000902968 5e-05 0.0131708 -0.011531 -0.112614 0 0 -5.1365e-09 
265 1 0.000173606 0.000361341 0.000838641 5e-05 -0.0178226 -0.0258682 -0.108673 0 0 -5.1365e-09 
418 1 0.000254919 0.000317678 0.000883836 5e-05 -0.0211896 -0.0144011 -0.0881005 0 0 -5.1365e-09 
7 1 0.0001089 0.000423092 0.000897756 5e-05 -0.0333747 -0.0320739 -0.0759297 0 0 -5.1365e-09 
67 1 -3.31434e-05 -0.000429373 0.000968165 5e-05 0.0223876 0.0155482 -0.100625 0 0 -5.1365e-09 
399 1 -0.000302816 -0.00034214 0.00103614 5e-05 0.0204731 0.0146802 -0.0769667 0 0 -5.1365e-09 
286 1 -0.000173025 -0.000275255 0.000974896 5e-05 0.0363268 0.00735086 -0.124312 0 0 -5.1365e-09 
545 1 0.000249197 -0.000337192 0.000986981 5e-05 -0.0167445 0.0373355 -0.0848275 0 0 -5.1365e-09 
470 1 -0.000385738 -0.000226189 0.000929115 5e-05 0.0203478 -0.00679927 -0.0873179 0 0 -5.1365e-09 
137 1 -0.000439368 -0.000147763 0.00102224 5e-05 0.000327256 0.00220359 -0.109365 0 0 -5.1365e-09 
395 1 -0.000242365 -0.00022028 0.000926283 5e-05 0.0382976 -0.0065374 -0.110297 0 0 -5.1365e-09 
262 1 -0.000323606 -0.000193411 0.00103519 5e-05 0.0103411 0.00933674 -0.101546 0 0 -5.1365e-09 
484 1 -0.000196328 -0.000182315 0.00104481 5e-05 0.0131528 0.0144475 -0.0908625 0 0 -5.1365e-09 
118 1 0.000367514 -0.00022326 0.000976524 5e-05 -0.00413893 0.0307546 -0.0910531 0 0 -5.1365e-09 
338 1 -0.000425523 -6.82779e-05 0.000941917 5e-05 0.0111051 0.0258115 -0.0649332 0 0 -5.1365e-09 
527 1 -0.000297853 -6.56417e-05 0.000927164 5e-05 0.0134706 0.0381419 -0.111477 0 0 -5.1365e-09 
58 1 -0.000305032 1.29145e-05 0.0010485 5e-05 0.0405283 0.010128 -0.108651 0 0 -5.1365e-09 
77 1 0.000166058 7.20293e-05 0.00104421 5e-05 -0.0186214 0.00770742 -0.0995797 0 0 -5.1365e-09 
426 1 0.00031714 6.20325e-05 0.000986203 5e-05 -0.00670199 -0.0119464 -0.116713 0 0 -5.1365e-09 
198 1 0.000465493 -1.89064e-05 0.00101243 5e-05 -0.0057914 -0.044953 -0.104714 0 0 -5.1365e-09 
404 1 0.000413984 5.79984e-05 0.00106742 5e-05 -0.0242227 -0.000264556 -0.0853694 0 0 -5.1365e-09 
223 1 -0.000393722 0.000165084 0.000929022 5e-05 0.0294826 -0.0478887 -0.0662179 0 0 -5.1365e-09 
161 1 0.000135533 0.000189669 0.00100583 5e-05 -0.0271697 -0.0188918 -0.0892592 0 0 -5.1365e-09 
451 1 0.000243871 0.000219142 0.000983911 5e-05 -0.0201236 0.00738223 -0.0846707 0 0 -5.1365e-09 
105 1 0.000370769 0.000194498 0.00098808 5e-05 -0.0249014 -0.0164374 -0.0996551 0 0 -5.1365e-09 
522 1 -0.000313943 0.000294656 0.00102956 5e-05 0.0197817 -0.0335858 -0.0742604 0 0 -5.1365e-09 
486 1 -0.000106219 0.000382347 0.00102843 5e-05 0.00598853 -0.0269991 -0.0848201 0 0 -5.1365e-09 
8 1 0.000157136 0.000286974 0.000964136 5e-05 -0.0302661 -0.0197077 -0.108823 0 0 -5.1365e-09 
566 1 0.00026069 0.000359664 0.00101598 5e-05 -0.0143377 -0.0267238 -0.0840564 0 0 -5.1365e-09 
234 1 0.000352278 0.000293794 0.0010686 5e-05 -0.0133793 -0.018423 -0.103261 0 0 -5.1365e-09 
540 1 -0.000253241 0.000397397 0.00106281 5e-05 0.0306647 -0.0380978 -0.0467656 0 0 -5.1365e-09 
173 1 -9.27546e-05 0.000444207 0.000943032 5e-05 -0.017021 -0.0146871 -0.0902031 0 0 -5.1365e-09 
106 1 2.02884e-05 0.000441069 0.000963129 5e-05 0.0141151 -0.0267125 -0.101402 0 0 -5.1365e-09 
14 1 0.000172352 -0.000442028 0.00115133 5e-05 -0.00926393 0.0313863 -0.0686558 0 0 -5.1365e-09 
357 1 -0.000378456 -0.000290149 0.00109794 5e-05 0.0399146 0.0102748 -0.0783449 0 0 -5.1365e-09 
396 1 -0.000334521 -0.000360175 0.00117692 5e-05 0.0248432 0.0263563 -0.0586563 0 0 -5.1365e-09 
185 1 -0.000271357 -0.000232557 0.00112349 5e-05 0.0403358 0.0256887 -0.0992342 0 0 -5.1365e-09 
335 1 -0.000176599 -0.000346551 0.00110386 5e-05 0.0119718 0.0134885 -0.0967567 0 0 -5.1365e-09 
544 1 -9.21414e-05 -0.000275489 0.00108912 5e-05 0.0260577 0.00627215 -0.0954037 0 0 -5.1365e-09 
203 1 0.000264987 -0.0002897 0.00111862 5e-05 0.00996011 0.0137032 -0.10119 0 0 -5.1365e-09 
15 1 -0.000286796 -0.000113945 0.00109852 5e-05 0.0202824 0.00640251 -0.0980165 0 0 -5.1365e-09 
567 1 -0.000363119 -0.000135261 0.0011796 5e-05 -0.0141162 0.0112724 -0.104874 0 0 -5.1365e-09 
69 1 0.000321902 -0.000107197 0.00107837 5e-05 -0.0162379 -0.0259887 -0.0985811 0 0 -5.1365e-09 
518 1 0.00047435 -0.000181469 0.00119747 5e-05 -0.0206848 0.0158723 -0.0718493 0 0 -5.1365e-09 
495 1 -0.000494639 -7.15896e-05 0.00115822 5e-05 0.00854772 0.00154378 -0.0778987 0 0 -5.1365e-09 
145 1 -0.000486436 6.28142e-05 0.00114984 5e-05 0.0125928 0.0189005 -0.0775801 0 0 -5.1365e-09 
64 1 0.00028166 0.000181564 0.00113543 5e-05 -0.0223237 -0.018348 -0.0969576 0 0 -5.1365e-09 
327 1 0.000491666 8.28082e-05 0.00114928 5e-05 -0.0222347 0.00604119 -0.0732498 0 0 -5.1365e-09 
307 1 0.000426321 0.0001702 0.00119256 5e-05 -0.0231671 0.0253629 -0.0861122 0 0 -5.1365e-09 
565 1 -0.000312841 0.000324002 0.00119374 5e-05 0.028389 -0.0371411 -0.051213 0 0 -5.1365e-09 
163 1 -0.000191723 0.00033059 0.00112743 5e-05 0.0209929 -0.044566 -0.0876188 0 0 -5.1365e-09 
1 1 0.000187017 0.000282103 0.00113107 5e-05 -0.0277019 -0.0181741 -0.0962136 0 0 -5.1365e-09 
380 1 0.000335587 0.00026124 0.00116577 5e-05 0.00555758 0.000588434 -0.0870044 0 0 -5.1365e-09 
539 1 0.000373886 0.000353547 0.00121743 5e-05 -0.0301062 -0.00723908 -0.0606532 0 0 -5.1365e-09 
125 1 -0.00020582 0.000460552 0.00116071 5e-05 0.00364031 -0.00133247 -0.106514 0 0 -5.1365e-09 
571 1 -7.61912e-05 0.000476804 0.0010791 5e-05 0.00929444 -0.022699 -0.0597368 0 0 -5.1365e-09 
260 1 0.000193753 0.000441818 0.00123076 5e-05 -0.0227166 -0.0234921 -0.0672668 0 0 -5.1365e-09 
187 1 0.000285936 0.000394473 0.00111389 5e-05 -0.00677492 -0.017112 -0.086119 0 0 -5.1365e-09 
416 1 -0.000331325 -0.000410588 0.00127303 5e-05 0.0081986 0.0129153 -0.0572446 0 0 -5.1365e-09 
556 1 -0.000159091 -0.000512539 0.00128938 5e-05 0.00209605 0.0149682 -0.0641899 0 0 -5.1365e-09 
85 1 -0.000212128 -0.000414846 0.00126202 5e-05 0.00515256 0.0226466 -0.0809175 0 0 -5.1365e-09 
478 1 0.00020948 -0.000441465 0.00130626 5e-05 -0.00780726 0.00518716 -0.0761369 0 0 -5.1365e-09 
452 1 0.000142097 -0.000531455 0.00134878 5e-05 -0.00697527 0.0247679 -0.0505353 0 0 -5.1365e-09 
38 1 -0.000447359 -0.000246256 0.0012687 5e-05 0.0221122 -0.0129134 -0.0774011 0 0 -5.1365e-09 
138 1 -0.000332933 -0.000265267 0.0012381 5e-05 0.00829604 0.0517757 -0.0745764 0 0 -5.1365e-09 
2 1 -0.000373571 -0.000363807 0.00137158 5e-05 -0.0217386 0.0172856 -0.0620672 0 0 -5.1365e-09 
167 1 -0.000248429 -0.000348468 0.00134669 5e-05 -0.00620736 0.0175022 -0.0804436 0 0 -5.1365e-09 
255 1 0.000458586 -0.000275211 0.0012692 5e-05 -0.00573653 0.018635 -0.0674449 0 0 -5.1365e-09 
370 1 -0.000504877 -0.000108478 0.00125709 5e-05 0.0112411 -0.0226526 -0.0607737 0 0 -5.1365e-09 
171 1 -0.000447573 -9.93727e-05 0.00135453 5e-05 0.0137059 -0.0011516 -0.0837123 0 0 -5.1365e-09 
271 1 -0.000279751 -0.000221251 0.00132569 5e-05 -0.00483217 0.0292166 -0.0547421 0 0 -5.1365e-09 
519 1 0.000523763 -0.000163964 0.00136449 5e-05 -0.00310994 0.0139043 -0.0642126 0 0 -5.1365e-09 
364 1 -0.000434342 -2.8597e-05 0.00125748 5e-05 0.0173039 0.0267723 -0.0887823 0 0 -5.1365e-09 
275 1 -0.000528733 -3.1258e-05 0.00134413 5e-05 0.0207679 -0.00538164 -0.0675519 0 0 -5.1365e-09 
472 1 -0.000340864 9.62902e-06 0.00129969 5e-05 -0.000682232 0.011665 -0.072886 0 0 -5.1365e-09 
93 1 0.000517835 -6.2346e-05 0.00123464 5e-05 -0.0179155 0.0194036 -0.0691396 0 0 -5.1365e-09 
386 1 0.000405663 -3.72326e-05 0.00136362 5e-05 -0.00178107 0.00552417 -0.0607106 0 0 -5.1365e-09 
264 1 0.000545088 3.32492e-05 0.00136321 5e-05 -0.0170014 0.00842645 -0.0566577 0 0 -5.1365e-09 
245 1 -0.000492743 8.65037e-05 0.00130168 5e-05 0.0139643 -0.0113578 -0.0665219 0 0 -5.1365e-09 
349 1 0.000331699 0.000199827 0.00125107 5e-05 -0.000117011 0.000671587 -0.0870913 0 0 -5.1365e-09 
443 1 0.000343162 9.52295e-05 0.00123803 5e-05 -0.0271213 0.00179942 -0.0965712 0 0 -5.1365e-09 
190 1 0.000452451 8.16558e-05 0.00131144 5e-05 -0.029668 -0.0142497 -0.072402 0 0 -5.1365e-09 
94 1 0.000509186 0.000167227 0.00129357 5e-05 -0.0038961 0.023008 -0.0535801 0 0 -5.1365e-09 
146 1 0.000392554 0.000161797 0.0013235 5e-05 -0.0209631 -0.00689104 -0.0670135 0 0 -5.1365e-09 
303 1 0.000177763 0.000297206 0.00131681 5e-05 -0.0193518 0.0090856 -0.0782664 0 0 -5.1365e-09 
415 1 0.000310183 0.000347765 0.00130289 5e-05 0.00760372 -0.00324223 -0.0896283 0 0 -5.1365e-09 
221 1 0.000461404 0.000269922 0.00129521 5e-05 -0.0242516 -0.0211493 -0.0600465 0 0 -5.1365e-09 
561 1 -0.000293333 0.000435339 0.00124872 5e-05 0.00951494 -0.0155996 -0.0750526 0 0 -5.1365e-09 
39 1 -0.000304521 0.000400728 0.0013428 5e-05 0.00353621 -0.00099786 -0.0715561 0 0 -5.1365e-09 
439 1 -0.000190124 0.000526615 0.00136589 5e-05 0.000209779 -0.018007 -0.0577287 0 0 -5.1365e-09 
177 1 0.000321077 0.00044911 0.00135176 5e-05 -0.00706336 -0.0323461 -0.0499541 -5.40811e-07 -5.55852e-07 5.86432e-07 
284 1 -0.000135403 -0.000541726 0.00150567 5e-05 -0.0136311 -0.00907642 -0.0309091 -2.29881e-08 9.18547e-08 -1.62913e-07 
375 1 -2.32602e-05 -0.000585595 0.00146669 5e-05 -0.00363009 0.000367524 -0.0315452 7.66002e-07 1.94282e-06 1.60941e-06 
569 1 0.000116075 -0.000578926 0.00153254 5e-05 0.00574152 0.00516418 -0.0191222 0 0 -5.1365e-09 
288 1 -0.000246219 -0.00041098 0.00147843 5e-05 -0.000555636 0.00761874 -0.0531841 0 0 -5.1365e-09 
533 1 -0.000217874 -0.000515517 0.00142495 5e-05 0.012389 0.00710743 -0.0635061 0 0 -5.1365e-09 
41 1 0.000139292 -0.000480612 0.00149439 5e-05 -0.0225396 0.0107474 -0.0370642 0 0 -5.1365e-09 
341 1 0.000228401 -0.000515836 0.00144932 5e-05 -0.0103073 0.0114213 -0.0435356 0 0 -5.1365e-09 
513 1 0.000318923 -0.000473679 0.00143822 5e-05 -0.00707483 0.00368693 -0.0465226 0 0 -5.1365e-09 
278 1 0.000301985 -0.000431362 0.0015273 5e-05 -0.00190886 0.00489284 -0.0417704 0 0 -5.1365e-09 
102 1 0.000439003 -0.000395328 0.00153176 5e-05 0.00475471 -0.00291351 -0.00164346 0 0 -5.1365e-09 
315 1 -0.000475728 -0.000286766 0.00145629 5e-05 -0.0106496 -0.0207865 -0.0688034 1.99619e-06 -2.70764e-06 -5.77938e-07 
306 1 -0.000295207 -0.000303722 0.00145499 5e-05 -0.00292701 -0.0103898 -0.078387 0 0 -5.1365e-09 
193 1 -0.0003815 -0.000289532 0.00151864 5e-05 0.0286864 -0.0151007 -0.0319334 0 0 -5.1365e-09 
279 1 0.000142191 -0.000286927 0.00153384 5e-05 0.00114048 -0.00403244 -0.0130654 0 0 -5.1365e-09 
477 1 0.0002128 -0.000362822 0.00148551 5e-05 -0.0167904 0.00237357 -0.0607986 0 0 -5.1365e-09 
361 1 0.000281718 -0.000369458 0.00140908 5e-05 -0.00939901 0.011562 -0.0525281 0 0 -5.1365e-09 
474 1 0.000483391 -0.00026651 0.00145607 5e-05 -0.00378856 0.00534116 -0.0364016 0 0 -5.1365e-09 
59 1 -0.000536106 -0.000213319 0.00148665 5e-05 -0.00108685 -0.00387243 -0.0428075 -1.99619e-06 2.70764e-06 5.67665e-07 
130 1 -0.000537841 -0.000104449 0.00152749 5e-05 0.0121761 -0.0281109 -0.0248987 0 0 -5.1365e-09 
531 1 -0.000364071 -0.000225096 0.001388 5e-05 0.0290273 0.0215774 -0.0526079 0 0 -5.1365e-09 
557 1 -0.000378964 -9.08653e-05 0.00142701 5e-05 0.002816 -0.020971 -0.0414039 0 0 -5.1365e-09 
309 1 -0.000231355 -0.000201409 0.00144697 5e-05 -0.0186893 -0.00288666 -0.0433382 0 0 -5.1365e-09 
372 1 -0.000348146 -0.000159228 0.00150869 5e-05 -0.00706955 -0.022543 -0.0645619 0 0 -5.1365e-09 
150 1 0.000502489 -0.000114368 0.00152516 5e-05 0.0109677 0.0131214 -0.0208058 0 0 -5.1365e-09 
220 1 -0.000535271 6.08856e-05 0.00139113 5e-05 0.0148932 -0.00326246 -0.0691451 0 0 -5.1365e-09 
310 1 -0.000455903 -2.62745e-05 0.00143238 5e-05 0.0187119 -0.00510264 -0.0809124 0 0 -5.1365e-09 
129 1 -0.000453789 6.679e-05 0.0014866 5e-05 0.00594067 -0.00743428 -0.0344259 0 0 -5.1365e-09 
241 1 -0.00024712 -7.61019e-05 0.00147032 5e-05 -0.0123395 -0.010671 -0.0359734 0 0 -5.1365e-09 
62 1 0.00051436 -5.98646e-05 0.00139286 5e-05 -0.0123576 0.0052218 -0.0658003 0 0 -5.1365e-09 
456 1 0.000491017 1.5483e-05 0.00148943 5e-05 -0.0135717 0.0224261 -0.0547606 0 0 -5.1365e-09 
410 1 0.000394441 1.14598e-05 0.00151987 5e-05 0.00981118 0.0168935 -0.0362976 0 0 -5.1365e-09 
212 1 0.000587902 4.34999e-05 0.00152616 5e-05 0.00159943 0.0385863 -0.0469179 0 0 -5.1365e-09 
238 1 -0.00056996 0.000109268 0.00150902 5e-05 0.0256869 -0.017368 -0.0186993 0 0 -5.1365e-09 
19 1 -0.000536999 0.000184777 0.00143363 5e-05 0.00848481 -0.0152486 -0.0448071 0 0 -5.1365e-09 
158 1 0.00018408 9.21671e-05 0.00148748 5e-05 0.00410745 -0.00422495 -0.0390933 0 0 -5.1365e-09 
524 1 0.000207984 0.000187044 0.00146579 5e-05 0.00631144 0.00185163 -0.0411405 0 0 -5.1365e-09 
216 1 0.000286459 9.33421e-05 0.00144179 5e-05 0.000398965 -0.0164172 -0.0606816 0 0 -5.1365e-09 
122 1 0.000298887 0.000230577 0.00147561 5e-05 0.0134692 0.0105682 -0.0678328 0 0 -5.1365e-09 
503 1 0.000395472 0.000104463 0.00144796 5e-05 0.0168958 -0.00243321 -0.0720709 0 0 -5.1365e-09 
314 1 0.000503613 0.000198284 0.00142234 5e-05 -0.00637733 0.0365111 -0.0806836 0 0 -5.1365e-09 
563 1 -0.000499367 0.000287466 0.00146449 5e-05 0.00684005 -0.0089841 -0.0422014 0 0 -5.1365e-09 
570 1 0.000208963 0.000302441 0.00152112 5e-05 0.017848 0.00979869 -0.0430278 0 0 -5.1365e-09 
433 1 0.000310615 0.000363027 0.00146372 5e-05 -0.0134667 0.0147912 -0.0648148 0 0 -5.1365e-09 
147 1 0.000432641 0.000360363 0.00141383 5e-05 0.0183926 0.0156508 -0.0647098 0 0 -5.1365e-09 
277 1 0.000393837 0.00026443 0.00142936 5e-05 0.00432167 0.0269847 -0.0819539 0 0 -5.1365e-09 
487 1 0.000504172 0.000291742 0.0014886 5e-05 -0.0216332 -0.0502933 -0.0231263 0 0 -5.1365e-09 
505 1 -0.000441923 0.000392885 0.00148317 5e-05 -1.67993e-05 -9.84002e-06 3.79272e-05 1.55318e-08 9.32422e-09 -3.48763e-08 
403 1 -0.0002881 0.000482461 0.00140029 5e-05 0.00440629 -0.020722 -0.0523838 0 0 -5.1365e-09 
385 1 -0.000371626 0.000459452 0.00151537 5e-05 0.00810226 0.00957086 -0.0242708 0 0 -5.1365e-09 
424 1 -0.000242139 0.000538074 0.00152347 5e-05 -0.0164779 0.0160395 -0.032405 0 0 -5.1365e-09 
354 1 -0.000189521 0.000429339 0.00144607 5e-05 0.00206771 0.00170483 -0.0517139 0 0 -5.1365e-09 
535 1 -0.000141811 0.000510617 0.00150828 5e-05 -0.0153275 0.00582523 -0.0403279 0 0 -5.1365e-09 
498 1 0.00022431 0.000401489 0.00142352 5e-05 0.0105914 0.00301129 -0.0485804 0 0 -5.1365e-09 
79 1 0.000130572 0.0005226 0.00138552 5e-05 -0.00789637 -0.0170561 -0.0452563 0 0 -5.1365e-09 
517 1 0.00023052 0.000514201 0.00141865 5e-05 -0.00628704 -0.0126561 -0.0523141 0 0 -5.1365e-09 
562 1 0.000283387 0.000513324 0.00151066 5e-05 0.00422264 -0.0173704 -0.0385001 0 0 -5.1365e-09 
119 1 -5.57739e-05 0.000591659 0.00152241 5e-05 0.0069356 0.00187204 -0.00832004 0 0 -5.1365e-09 
525 1 3.37697e-05 0.000556166 0.00141456 5e-05 0.00192583 -0.0127879 -0.0478043 0 0 -5.1365e-09 
240 1 0.000103384 0.000572257 0.00149597 5e-05 -0.00139388 -0.0180414 -0.0408478 0 0 -5.1365e-09 
206 1 -0.000236782 -0.000565124 0.00157184 5e-05 -0.0346254 -0.00704078 -0.0309928 0 0 -5.1365e-09 
200 1 -8.3113e-05 -0.00059828 0.00156943 5e-05 -0.00340954 0.00358943 -0.0175984 2.29881e-08 -9.18547e-08 1.5264e-07 
469 1 -0.000198007 -0.000588864 0.00166449 5e-05 -0.0448181 0.00913181 -0.0312935 0 0 -5.1365e-09 
398 1 5.97508e-05 -0.000609763 0.00161936 5e-05 -0.00463676 -0.00920251 -0.00543656 0 0 -5.1365e-09 
65 1 0.00014633 -0.000596881 0.00168995 5e-05 0.00793208 -0.00335241 -0.0102628 0 0 -5.1365e-09 
552 1 -9.21545e-05 -0.000458844 0.00156587 5e-05 -0.00236077 -0.00463994 -0.0305549 0 0 -5.1365e-09 
377 1 -0.000228136 -0.000418893 0.00159477 5e-05 -0.042953 -0.00985829 -0.0206861 0 0 -5.1365e-09 
523 1 2.98138e-05 -0.000432333 0.00155181 5e-05 0.00179645 0.00529751 -0.00937801 0 0 -5.1365e-09 
4 1 -3.56844e-05 -0.000385114 0.00163141 5e-05 0.0143007 0.00345346 -0.0245688 0 0 -5.1365e-09 
268 1 -1.18871e-06 -0.000476901 0.00166845 5e-05 -0.00723647 -0.00311018 -0.0279795 0 0 -5.1365e-09 
257 1 8.10886e-05 -0.000512258 0.00160014 5e-05 0.00126487 0.00430214 -0.0168814 0 0 -5.1365e-09 
217 1 0.000121859 -0.00042416 0.00164078 5e-05 0.0111244 0.00265346 0.00171595 0 0 -5.1365e-09 
151 1 0.000192856 -0.000516424 0.00161289 5e-05 0.0190817 -0.0083584 -0.0313192 0 0 -5.1365e-09 
554 1 0.000122468 -0.000385279 0.00154356 5e-05 0.00195378 -0.00730014 -0.00754705 0 0 -5.1365e-09 